version 3
run General-19-20230606-18:10:20-19028
attr configname General
attr datetime 20230606-18:10:20
attr datetimef 20230606-181020
attr experiment General
attr inifile HeavyTrafficLimits_lambda_1.0-switchProb_0.8-serviceTime_exponential(0.25s).ini
attr iterationvars ""
attr iterationvarsd ""
attr iterationvarsf ""
attr measurement ""
attr network HeavyTrafficLimits
attr processid 19028
attr repetition 19
attr replication rep19
attr resultdir results/lambda_1.0-switchProb_0.8-serviceTime_exponential(0.25s)
attr runnumber 19
attr seedset 19
config network HeavyTrafficLimits
config sim-time-limit 100000s
config repeat 20
config replication-label rep19
config result-dir results/lambda_1.0-switchProb_0.8-serviceTime_exponential(0.25s)
config warmup-period 30000s
config **.source.lambda 1.0
config **.router.switchProbability 0.8
config **.server1.serviceTime exponential(0.25s)
config **.server2.serviceTime exponential(0.25s)
config **.server3.serviceTime exponential(0.25s)
config **.server1.crashTime 500
config **.server2.crashTime 750
config **.server3.crashTime 1000
config **.server1.queueLength.record true
config **.server1.serviceTime.record true
config **.server2.serviceTime.record true
config **.server3.serviceTime.record true

vector 0 HeavyTrafficLimits.sink lifeTime:vector ETV
attr interpolationmode none
attr recordingmode vector
attr title "lifetime of arrived jobs"
attr unit s
vector 1 HeavyTrafficLimits.queue1 queueLength:vector ETV
attr interpolationmode sample-hold
attr recordingmode vector
attr title "queue length"
vector 2 HeavyTrafficLimits.queue2 queueLength:vector ETV
attr interpolationmode sample-hold
attr recordingmode vector
attr title "queue length"
vector 3 HeavyTrafficLimits.queue3 queueLength:vector ETV
attr interpolationmode sample-hold
attr recordingmode vector
attr title "queue length"
0	270405	30000.073548298173	0.166391133074
0	270414	30000.924425503348	0.166391133074
0	270423	30003.655417938075	0.383740236443
0	270432	30005.286001964266	0.166391133074
0	270441	30007.588237240585	0.166391133074
0	270462	30010.477205341476	0.166391133074
0	270465	30010.617940518237	0.270743486336
0	270468	30010.758675694998	0.388236749318
0	270477	30011.56270381088	0.166391133074
0	270486	30012.770076331897	0.166391133074
0	270495	30014.403616355006	0.166391133074
0	270504	30015.348523033901	0.166391133074
0	270519	30016.562910533322	0.166391133074
0	270522	30016.703645710083	0.29712932863
0	270537	30018.603377823134	0.166391133074
0	270540	30018.744112999895	0.20299194519
0	270561	30021.483288317372	0.166391133074
0	270570	30021.624023494133	0.26049459072
0	270573	30021.764758670894	0.356562528432
0	270576	30021.905493847655	0.408927044829
0	270585	30023.263396406933	0.166391133074
0	270594	30024.081177009602	0.383740236443
0	270603	30024.772231507285	0.166391133074
0	270612	30025.621304658131	0.166391133074
0	270627	30026.834349774917	0.166391133074
0	270633	30026.975084951678	0.254281898412
0	270646	30027.140813986836	0.166391133074
0	270648	30027.444208381361	0.383740236443
0	270657	30030.018489512914	0.166391133074
0	270666	30033.035463398554	0.166391133074
0	270675	30034.438062308828	0.166391133074
0	270684	30036.795031928826	0.166391133074
0	270700	30039.063094035984	0.166391133074
0	270709	30039.164407781748	0.383740236443
0	270711	30039.241310205733	0.166391133074
0	270720	30039.659237544708	0.166391133074
0	270729	30042.075600433456	0.166391133074
0	270738	30043.772451723463	0.166391133074
0	270747	30044.568446462443	0.166391133074
0	270756	30045.709426212301	0.166391133074
0	270772	30048.302932407706	0.383740236443
0	270774	30048.358074779717	0.166391133074
0	270783	30048.659856763093	0.166391133074
0	270792	30049.21406211314	0.383740236443
0	270801	30049.771720345664	0.166391133074
0	270810	30050.754306787126	0.166391133074
0	270819	30051.803016749905	0.166391133074
0	270828	30052.209140830395	0.166391133074
0	270844	30052.602275875723	0.166391133074
0	270846	30052.617056278769	0.383740236443
0	270855	30054.366261928179	0.166391133074
0	270864	30058.95851333095	0.166391133074
0	270873	30059.610754199836	0.383740236443
0	270882	30060.577909266675	0.166391133074
0	270891	30061.582882367792	0.166391133074
0	270900	30062.72532989857	0.166391133074
0	270909	30063.46256387058	0.383740236443
0	270925	30066.021388286916	0.166391133074
0	270927	30066.358566060325	0.383740236443
0	270943	30068.211598026284	0.383740236443
0	270945	30068.246036494652	0.166391133074
0	270960	30068.573245255054	0.166391133074
0	270963	30068.713980431815	0.167181103417
0	270985	30069.555163188691	0.166391133074
0	270988	30069.58314387204	0.383740236443
0	270996	30069.695898365452	0.221927287138
0	270999	30069.836633542213	0.176176443909
0	271008	30070.74137204163	0.166391133074
0	271017	30071.993281761459	0.166391133074
0	271026	30074.380149207911	0.166391133074
0	271035	30075.29167776129	0.383740236443
0	271044	30076.907838778559	0.383740236443
0	271053	30078.718580096733	0.383740236443
0	271062	30079.382893871917	0.166391133074
0	271071	30080.225796420741	0.166391133074
0	271080	30080.435746982863	0.166391133074
0	271089	30080.633175794231	0.166391133074
0	271098	30082.737656984019	0.166391133074
0	271107	30083.76819639653	0.166391133074
0	271116	30084.417762415243	0.166391133074
0	271125	30085.003124596839	0.383740236443
0	271140	30087.555921028103	0.166391133074
0	271143	30087.696656204864	0.287308830693
0	271152	30088.3119078572	0.383740236443
0	271161	30090.267185813041	0.166391133074
0	271170	30090.963741476042	0.166391133074
0	271179	30091.788810019528	0.383740236443
0	271188	30094.144159506841	0.166391133074
0	271197	30094.685552955024	0.383740236443
0	271206	30096.204179636469	0.383740236443
0	271221	30096.514226912786	0.166391133074
0	271224	30096.654962089547	0.305007203896
0	271239	30097.234142065666	0.166391133074
0	271242	30097.374877242427	0.216246285622
0	271251	30100.090711442821	0.166391133074
0	271266	30100.621606106786	0.166391133074
0	271272	30100.762341283547	0.281824169057
0	271278	30100.91528240684	0.166391133074
0	271287	30101.7745689121	0.383740236443
0	271296	30103.067364006029	0.166391133074
0	271318	30103.469110512134	0.166391133074
0	271321	30103.477062574695	0.383740236443
0	271323	30103.609845688895	0.199706209688
0	271332	30103.895645563877	0.166391133074
0	271348	30104.515934307385	0.383740236443
0	271350	30104.572690018487	0.166391133074
0	271359	30105.341254842137	0.166391133074
0	271368	30108.384835577461	0.166391133074
0	271377	30109.249217372826	0.166391133074
0	271386	30109.508532415376	0.166391133074
0	271395	30109.994762792374	0.166391133074
0	271410	30110.624523618757	0.166391133074
0	271413	30110.765258795518	0.268062497194
0	271422	30112.778872656142	0.166391133074
0	271431	30113.457507895251	0.166391133074
0	271440	30114.216295017872	0.383740236443
0	271456	30114.881672655146	0.182797430283
0	271458	30115.073365802202	0.383740236443
0	271467	30115.98700958126	0.166391133074
0	271476	30116.995103058888	0.166391133074
0	271485	30118.412998442376	0.166391133074
0	271494	30119.097495508794	0.166391133074
0	271503	30119.495913083759	0.166391133074
0	271512	30122.259244163698	0.166391133074
0	271521	30123.163160368379	0.383740236443
0	271530	30124.298038849314	0.166391133074
0	271539	30124.989804874864	0.166391133074
0	271548	30126.215153863324	0.166391133074
0	271557	30126.716196991412	0.166391133074
0	271566	30127.530465903515	0.166391133074
0	271575	30128.849915660197	0.166391133074
0	271584	30131.854587885044	0.166391133074
0	271593	30132.55280784464	0.166391133074
0	271602	30133.499549027681	0.383740236443
0	271611	30135.656983797376	0.166391133074
0	271620	30136.434821759286	0.383740236443
0	271629	30137.397647992882	0.166391133074
0	271638	30139.150432004735	0.166391133074
0	271654	30140.604617978542	0.190936968125
0	271656	30140.796311125598	0.383740236443
0	271665	30143.274564157792	0.166391133074
0	271677	30144.228131252931	0.166391133074
0	271683	30144.375360930414	0.166391133074
0	271692	30146.822659552652	0.166391133074
0	271701	30147.019168133704	0.166391133074
0	271710	30147.319784764556	0.166391133074
0	271719	30148.537123281966	0.166391133074
0	271728	30149.106146417755	0.166391133074
0	271737	30152.063383970435	0.383740236443
0	271746	30153.217337594114	0.166391133074
0	271755	30154.11376441576	0.166391133074
0	271764	30155.358140361791	0.166391133074
0	271773	30155.697569127469	0.166391133074
0	271782	30157.096379098658	0.166391133074
0	271791	30157.606622875114	0.166391133074
0	271800	30157.935717519049	0.166391133074
0	271809	30158.655813709958	0.166391133074
0	271825	30159.027962160433	0.166391133074
0	271827	30159.051388993802	0.383740236443
0	271836	30162.180824665844	0.166391133074
0	271845	30163.50567943344	0.166391133074
0	271854	30165.172040340206	0.166391133074
0	271863	30166.685716967988	0.166391133074
0	271872	30167.193033713795	0.166391133074
0	271881	30167.721192262795	0.166391133074
0	271890	30168.180978554971	0.166391133074
0	271899	30168.865564113574	0.166391133074
0	271908	30169.308385909212	0.166391133074
0	271917	30169.881570010553	0.166391133074
0	271933	30171.407078689292	0.166391133074
0	271935	30171.592228255681	0.383740236443
0	271944	30172.107472509568	0.166391133074
0	271953	30173.082409981065	0.166391133074
0	271962	30173.338541323122	0.166391133074
0	271971	30175.334946283025	0.383740236443
0	271980	30175.975360071874	0.166391133074
0	271995	30176.888217224098	0.166391133074
0	272004	30177.028952400859	0.256007926743
0	272007	30177.16968757762	0.172396439258
0	272022	30177.750716588314	0.166391133074
0	272025	30177.891451765075	0.186725917782
0	272034	30179.880742280998	0.166391133074
0	272043	30181.674716658908	0.383740236443
0	272052	30182.384322873431	0.166391133074
0	272061	30182.553291520615	0.166391133074
0	272070	30182.905389354053	0.166391133074
0	272079	30183.460738692254	0.166391133074
0	272088	30184.090330085814	0.383740236443
0	272097	30185.353056771567	0.166391133074
0	272113	30186.04003036014	0.383740236443
0	272115	30186.12891428788	0.166391133074
0	272124	30190.145553482382	0.383740236443
0	272140	30193.348945686429	0.166391133074
0	272142	30193.591950746111	0.403057874735
0	272151	30194.306806132104	0.166391133074
0	272160	30194.69066240905	0.166391133074
0	272169	30196.745800384634	0.166391133074
0	272178	30197.987271145671	0.166391133074
0	272187	30198.32582961964	0.166391133074
0	272196	30198.586614182109	0.166391133074
0	272205	30199.173123130969	0.166391133074
0	272214	30200.104132702921	0.166391133074
0	272223	30200.911189637515	0.166391133074
0	272232	30202.321456899094	0.166391133074
0	272241	30203.804850057604	0.166391133074
0	272250	30204.924686697099	0.166391133074
0	272265	30205.591610278517	0.166391133074
0	272268	30205.732345455278	0.282070879359
0	272277	30209.429425885838	0.383740236443
0	272286	30210.072750824986	0.166391133074
0	272295	30210.626511052436	0.166391133074
0	272304	30211.015930541428	0.383740236443
0	272313	30211.860810001065	0.166391133074
0	272322	30214.214485944608	0.166391133074
0	272331	30214.663642272454	0.166391133074
0	272340	30215.17425653767	0.166391133074
0	272356	30216.756096994729	0.166391133074
0	272358	30216.999102054411	0.387885848653
0	272370	30218.357358526913	0.166391133074
0	272376	30218.505812582528	0.166391133074
0	272385	30219.152239095975	0.166391133074
0	272394	30220.665490442053	0.383740236443
0	272403	30221.462578852723	0.383740236443
0	272418	30225.91314860189	0.166391133074
0	272421	30226.053883778651	0.274724911559
0	272430	30228.38270654317	0.166391133074
0	272445	30229.180882621022	0.166391133074
0	272448	30229.321617797783	0.277404038544
0	272457	30230.511530371439	0.166391133074
0	272466	30231.515293323733	0.166391133074
0	272475	30233.938783384677	0.166391133074
0	272484	30234.609348145411	0.166391133074
0	272493	30235.762318018111	0.383740236443
0	272502	30237.065373511935	0.166391133074
0	272511	30238.087906513987	0.166391133074
0	272520	30238.599428416287	0.166391133074
0	272529	30239.5169439523	0.166391133074
0	272544	30240.171198033808	0.166391133074
0	272547	30240.311933210569	0.195704280008
0	272556	30240.951238092166	0.166391133074
0	272565	30241.588905189314	0.166391133074
0	272574	30243.099081441667	0.166391133074
0	272583	30243.613502591066	0.166391133074
0	272592	30245.655626028192	0.166391133074
0	272608	30246.605028026821	0.166391133074
0	272610	30246.784112298494	0.383740236443
0	272619	30248.026866697327	0.383740236443
0	272628	30249.365302328708	0.383740236443
0	272637	30250.515109834459	0.166391133074
0	272646	30251.376370577504	0.166391133074
0	272655	30254.087920224039	0.166391133074
0	272664	30255.499460393897	0.166391133074
0	272673	30256.097573252684	0.166391133074
0	272682	30256.678022400484	0.166391133074
0	272691	30256.931118277349	0.166391133074
0	272700	30258.473568092404	0.166391133074
0	272709	30258.881840053425	0.166391133074
0	272718	30259.540710609437	0.166391133074
0	272727	30260.274163122302	0.166391133074
0	272736	30260.520770909209	0.166391133074
0	272748	30262.713273806357	0.166391133074
0	272761	30262.87228361519	0.166391133074
0	272763	30263.163905646739	0.383740236443
0	272772	30263.829197121147	0.166391133074
0	272781	30265.151973369078	0.166391133074
0	272793	30266.422121581645	0.383740236443
0	272799	30266.567860446856	0.166391133074
0	272808	30266.781367825705	0.166391133074
0	272827	30268.695799548104	0.166391133074
0	272839	30268.830770875696	0.383740236443
0	272841	30268.843659372354	0.166391133074
0	272844	30268.984394549115	0.183060387586
0	272853	30269.98341630141	0.166391133074
0	272874	30270.913160659803	0.166391133074
0	272877	30271.053895836564	0.196888177236
0	272880	30271.194631013325	0.31027362046
0	272889	30271.503822232962	0.166391133074
0	272905	30273.960483655344	0.166391133074
0	272907	30273.969736869182	0.383740236443
0	272916	30280.111761359789	0.166391133074
0	272925	30283.051893736487	0.166391133074
0	272934	30283.337005672546	0.166391133074
0	272943	30285.474723229149	0.166391133074
0	272952	30288.309431477178	0.166391133074
0	272961	30288.66960811557	0.166391133074
0	272970	30290.406991845978	0.383740236443
0	272979	30290.923049478223	0.383740236443
0	272988	30292.476743837207	0.166391133074
0	273004	30293.167931117006	0.166391133074
0	273006	30293.479808290161	0.383740236443
0	273015	30293.991371835846	0.166391133074
0	273024	30294.620822491438	0.383740236443
0	273033	30296.315804032784	0.383740236443
0	273042	30297.204157544893	0.383740236443
0	273058	30298.405412127453	0.166391133074
0	273060	30298.453297008635	0.383740236443
0	273075	30299.316468237994	0.166391133074
0	273078	30299.457203414755	0.266248425629
0	273087	30300.208241776701	0.383740236443
0	273103	30301.217449195972	0.166391133074
0	273105	30301.32898064316	0.383740236443
0	273114	30301.691430301108	0.166391133074
0	273123	30302.257271865465	0.166391133074
0	273132	30302.587040368764	0.166391133074
0	273141	30302.889115013781	0.166391133074
0	273150	30303.646051992947	0.166391133074
0	273159	30306.160159772516	0.166391133074
0	273168	30306.358416599786	0.166391133074
0	273177	30307.156128421091	0.166391133074
0	273186	30308.111208797342	0.166391133074
0	273195	30309.723896893972	0.383740236443
0	273210	30315.48531197431	0.166391133074
0	273213	30315.626047151071	0.301938072259
0	273222	30316.028968338247	0.166391133074
0	273237	30316.628316608859	0.166391133074
0	273240	30316.76905178562	0.267602162748
0	273249	30318.366640087877	0.166391133074
0	273258	30319.205540116825	0.383740236443
0	273273	30319.561163295267	0.166391133074
0	273283	30319.701898472028	0.258798290808
0	273291	30319.957554814186	0.383740236443
0	273294	30320.315639094316	0.40859994706
0	273303	30320.922054639379	0.166391133074
0	273312	30321.411217432675	0.166391133074
0	273327	30321.832316804902	0.383740236443
0	273330	30322.190401085032	0.414602426665
0	273339	30326.592634984944	0.166391133074
0	273348	30327.37392482486	0.166391133074
0	273357	30329.394796664889	0.166391133074
0	273366	30330.321667279248	0.166391133074
0	273382	30332.332171810054	0.383740236443
0	273390	30332.443315047185	0.166391133074
0	273393	30332.584050223946	0.210631887274
0	273402	30333.409334754919	0.383740236443
0	273411	30333.727332149474	0.166391133074
0	273420	30335.116726563235	0.166391133074
0	273429	30335.470437284251	0.166391133074
0	273438	30337.857439500496	0.166391133074
0	273447	30339.163423124853	0.166391133074
0	273456	30339.634446719148	0.166391133074
0	273471	30341.21121848839	0.383740236443
0	273474	30341.56930276852	0.722346877675
0	273483	30342.432408755106	0.166391133074
0	273499	30342.625106032601	0.166391133074
0	273507	30342.959829805809	0.383740236443
0	273510	30343.317914085939	0.563154335591
0	273519	30344.76266000363	0.166391133074
0	273528	30345.300762851414	0.166391133074
0	273537	30349.120881406013	0.166391133074
0	273546	30350.197790247193	0.166391133074
0	273555	30351.247096791802	0.166391133074
0	273571	30351.95579544335	0.166391133074
0	273580	30352.19608317028	0.166391133074
0	273582	30352.306432055437	0.383740236443
0	273597	30353.608956812489	0.166391133074
0	273600	30353.74969198925	0.197021941149
0	273616	30354.631543915693	0.166391133074
0	273618	30354.989540560437	0.383740236443
0	273627	30356.035160464459	0.166391133074
0	273636	30358.456660207937	0.166391133074
0	273645	30359.868643977301	0.166391133074
0	273661	30362.212852811438	0.166391133074
0	273663	30362.342087403594	0.383740236443
0	273678	30363.589009400858	0.166391133074
0	273687	30363.729744577619	0.254011212434
0	273690	30363.87047975438	0.250011763786
0	273705	30366.674782297585	0.166391133074
0	273708	30366.815517474346	0.302183294553
0	273717	30367.19026546322	0.166391133074
0	273726	30367.766641806416	0.166391133074
0	273742	30369.952116373862	0.166391133074
0	273744	30369.987905322443	0.383740236443
0	273753	30370.348103248049	0.166391133074
0	273762	30371.469047016012	0.383740236443
0	273777	30371.649979454359	0.166391133074
0	273780	30371.79071463112	0.227828869134
0	273789	30372.105833580394	0.166391133074
0	273798	30372.660365350677	0.166391133074
0	273807	30373.421821881861	0.166391133074
0	273823	30376.72268385315	0.166391133074
0	273825	30376.965688912832	0.397295470091
0	273834	30377.988849175683	0.383740236443
0	273843	30378.704898455984	0.166391133074
0	273852	30378.931652711912	0.166391133074
0	273861	30379.209886097663	0.166391133074
0	273873	30379.833770327378	0.166391133074
0	273879	30379.99707249645	0.166391133074
0	273888	30381.327765055211	0.166391133074
0	273900	30381.792225540705	0.383740236443
0	273906	30381.938081297857	0.166391133074
0	273915	30382.340943561304	0.383740236443
0	273924	30384.172769883589	0.166391133074
0	273933	30384.51522741549	0.166391133074
0	273942	30384.856582947004	0.166391133074
0	273951	30389.325090163063	0.166391133074
0	273960	30389.765559749376	0.166391133074
0	273969	30391.098117225614	0.383740236443
0	273978	30392.049244309857	0.166391133074
0	273987	30393.030489781166	0.166391133074
0	273996	30393.725372863509	0.166391133074
0	274005	30394.482798234086	0.166391133074
0	274021	30394.653729174842	0.166391133074
0	274023	30395.003002119325	0.383740236443
0	274032	30395.195209580347	0.166391133074
0	274041	30397.082314056747	0.166391133074
0	274050	30397.526905069077	0.383740236443
0	274059	30398.2889548596	0.166391133074
0	274068	30398.944760079133	0.166391133074
0	274077	30399.678609029675	0.166391133074
0	274086	30402.395728252023	0.383740236443
0	274101	30402.870487802783	0.166391133074
0	274104	30403.011222979544	0.195931972398
0	274113	30404.278332682867	0.166391133074
0	274122	30404.548481910493	0.166391133074
0	274131	30404.770542156606	0.166391133074
0	274140	30405.413550470278	0.166391133074
0	274155	30406.671892071014	0.166391133074
0	274158	30406.812627247775	0.177757734513
0	274167	30406.98043355315	0.166391133074
0	274176	30409.590459116685	0.166391133074
0	274185	30410.429012799496	0.383740236443
0	274194	30411.133146949955	0.166391133074
0	274203	30411.974106578721	0.166391133074
0	274212	30412.395098019503	0.166391133074
0	274221	30415.047280357639	0.383740236443
0	274230	30417.072833025897	0.166391133074
0	274239	30418.845017588867	0.166391133074
0	274248	30419.504461359541	0.166391133074
0	274257	30419.898950467666	0.166391133074
0	274266	30420.549201006958	0.166391133074
0	274275	30423.044276376731	0.383740236443
0	274284	30424.57467160446	0.383740236443
0	274293	30424.94763237175	0.166391133074
0	274302	30425.704015811239	0.166391133074
0	274311	30426.182746191323	0.166391133074
0	274320	30427.152243399552	0.166391133074
0	274329	30428.195263518465	0.166391133074
0	274345	30429.672896531885	0.383740236443
0	274347	30429.705892409283	0.166391133074
0	274363	30430.181101539502	0.166391133074
0	274365	30430.424106599184	0.406882176097
0	274374	30431.171605770843	0.383740236443
0	274383	30432.151120506959	0.166391133074
0	274404	30433.262632649379	0.166391133074
0	274407	30433.40336782614	0.25700864282
0	274410	30433.544103002901	0.370171673338
0	274425	30434.133601170158	0.166391133074
0	274428	30434.274336346919	0.179488087061
0	274437	30434.471165151858	0.166391133074
0	274452	30437.365867358382	0.166391133074
0	274462	30437.506602535143	0.186665057727
0	274464	30437.831687428452	0.383740236443
0	274473	30438.890342449546	0.166391133074
0	274482	30443.670990097727	0.166391133074
0	274498	30444.149093994519	0.166391133074
0	274500	30444.242341811348	0.383740236443
0	274509	30445.284151185206	0.166391133074
0	274524	30447.247607046096	0.166391133074
0	274527	30447.388342222857	0.182109881581
0	274536	30447.97530894009	0.166391133074
0	274545	30448.16875388552	0.166391133074
0	274554	30453.322649195334	0.166391133074
0	274563	30453.677673174036	0.166391133074
0	274572	30454.128354669122	0.166391133074
0	274581	30455.948562946809	0.166391133074
0	274590	30456.580002155826	0.166391133074
0	274605	30457.730402842524	0.383740236443
0	274608	30458.088487122654	0.703252890327
0	274624	30458.453439567615	0.166391133074
0	274626	30458.746269025618	0.383740236443
0	274635	30459.981757784306	0.383740236443
0	274644	30460.874983075137	0.166391133074
0	274653	30463.689210770323	0.166391133074
0	274668	30464.058339380135	0.166391133074
0	274671	30464.199074556896	0.170559663571
0	274686	30464.652978636	0.166391133074
0	274689	30464.793713812761	0.287699036932
0	274701	30465.760513209111	0.166391133074
0	274713	30465.912710097058	0.166391133074
0	274716	30466.053445273819	0.19367080347
0	274725	30466.825309585101	0.166391133074
0	274734	30474.679128135355	0.166391133074
0	274743	30477.909573139739	0.166391133074
0	274752	30479.718159919685	0.383740236443
0	274768	30480.272467031276	0.383740236443
0	274770	30480.312994303686	0.166391133074
0	274779	30481.299800031197	0.383740236443
0	274788	30482.438749509516	0.383740236443
0	274806	30484.379043947635	0.166391133074
0	274813	30484.519779124396	0.279639370605
0	274815	30484.750141364886	0.383740236443
0	274824	30485.151496203505	0.166391133074
0	274833	30485.706941453802	0.166391133074
0	274842	30486.272448910232	0.166391133074
0	274851	30487.027285766466	0.166391133074
0	274860	30489.222987747816	0.166391133074
0	274869	30489.579497507467	0.166391133074
0	274884	30490.004554616585	0.166391133074
0	274887	30490.145289793346	0.263545006082
0	274896	30491.296810667029	0.166391133074
0	274905	30492.700573210519	0.383740236443
0	274914	30493.10863935526	0.166391133074
0	274923	30493.317907387657	0.166391133074
0	274932	30496.829674186548	0.166391133074
0	274941	30497.046510966972	0.166391133074
0	274956	30497.386680345203	0.166391133074
0	274959	30497.527415521964	0.216907924454
0	274968	30501.69903679112	0.383740236443
0	274977	30502.707661219715	0.166391133074
0	274986	30503.141084637316	0.383740236443
0	274995	30504.792770331673	0.166391133074
0	275004	30505.677005786568	0.166391133074
0	275013	30505.907970601842	0.166391133074
0	275022	30506.354266086933	0.166391133074
0	275031	30507.076997792482	0.166391133074
0	275046	30507.770309881491	0.166391133074
0	275049	30507.911045058252	0.30679429527
0	275058	30508.673198016089	0.383740236443
0	275074	30509.501923220807	0.166391133074
0	275076	30509.639662127783	0.383740236443
0	275095	30512.019138143812	0.383740236443
0	275100	30512.040834530762	0.166391133074
0	275103	30512.181569707523	0.181302641356
0	275115	30512.869709385256	0.166391133074
0	275121	30513.011290072682	0.166391133074
0	275130	30513.530535099388	0.166391133074
0	275139	30516.806235122859	0.166391133074
0	275148	30517.441885175129	0.166391133074
0	275157	30518.669730596592	0.166391133074
0	275172	30519.633056870997	0.166391133074
0	275175	30519.773792047758	0.187335263758
0	275190	30520.413672737668	0.383740236443
0	275193	30520.771757017798	0.549888640915
0	275202	30521.194241559817	0.166391133074
0	275211	30521.402531741661	0.166391133074
0	275220	30524.261793475161	0.166391133074
0	275236	30524.50753960029	0.166391133074
0	275238	30524.750544659972	0.396052852221
0	275247	30525.306554146302	0.166391133074
0	275262	30526.584690168596	0.166391133074
0	275265	30526.725425345357	0.1966275623
0	275274	30527.859348654426	0.166391133074
0	275283	30528.830606872831	0.166391133074
0	275292	30529.914560966963	0.166391133074
0	275301	30533.552357368317	0.166391133074
0	275310	30534.215421511232	0.166391133074
0	275325	30534.61467110671	0.166391133074
0	275328	30534.755406283471	0.287650686072
0	275337	30535.092422222092	0.166391133074
0	275346	30535.753899357476	0.166391133074
0	275355	30541.299493405981	0.166391133074
0	275364	30542.542989600546	0.166391133074
0	275373	30543.073192664316	0.166391133074
0	275382	30544.98864021958	0.166391133074
0	275391	30546.46336953864	0.166391133074
0	275406	30547.128562945617	0.166391133074
0	275409	30547.269298122378	0.281947623264
0	275418	30550.575539598612	0.166391133074
0	275440	30554.020346218363	0.166391133074
0	275449	30554.161081395124	0.263709753641
0	275452	30554.301816571885	0.260139072124
0	275454	30554.360924163906	0.383740236443
0	275463	30555.232083018556	0.166391133074
0	275472	30558.24503999398	0.166391133074
0	275481	30560.106333621494	0.383740236443
0	275490	30560.525247256239	0.166391133074
0	275499	30563.834192377587	0.383740236443
0	275508	30565.604785620382	0.166391133074
0	275517	30566.158182315601	0.166391133074
0	275526	30567.053209223171	0.383740236443
0	275541	30567.686773927325	0.166391133074
0	275544	30567.827509104086	0.27553010054
0	275553	30569.101855057459	0.166391133074
0	275562	30569.933118374202	0.383740236443
0	275571	30570.755311435979	0.166391133074
0	275580	30571.671598184944	0.166391133074
0	275589	30572.126246452269	0.166391133074
0	275598	30572.526104442696	0.383740236443
0	275607	30574.204905123125	0.166391133074
0	275616	30574.869233866953	0.166391133074
0	275625	30575.343370732502	0.166391133074
0	275634	30575.785609264716	0.166391133074
0	275643	30576.937917907005	0.166391133074
0	275652	30577.15019658624	0.166391133074
0	275661	30581.411949920288	0.166391133074
0	275676	30582.553248156678	0.166391133074
0	275679	30582.693983333439	0.258866862008
0	275688	30583.080946071454	0.166391133074
0	275697	30584.424912359644	0.166391133074
0	275706	30585.22943848709	0.166391133074
0	275721	30586.020968273988	0.166391133074
0	275724	30586.161703450749	0.225897438407
0	275736	30588.622074786398	0.166391133074
0	275742	30588.996884159238	0.383740236443
0	275757	30589.407096427127	0.166391133074
0	275760	30589.547831603888	0.230355614574
0	275769	30591.564347766254	0.166391133074
0	275778	30593.686522429032	0.166391133074
0	275787	30594.436135859327	0.383740236443
0	275809	30595.358201133453	0.166391133074
0	275812	30595.433605229355	0.383740236443
0	275814	30595.498936310214	0.276423187518
0	275823	30595.747446263025	0.166391133074
0	275832	30596.910610281307	0.166391133074
0	275841	30597.106799204093	0.166391133074
0	275850	30597.673208862237	0.166391133074
0	275859	30598.722789622776	0.166391133074
0	275868	30598.91762729106	0.166391133074
0	275877	30600.337653185976	0.166391133074
0	275893	30606.825016015543	0.166391133074
0	275895	30606.82639242682	0.383740236443
0	275904	30608.465034752971	0.166391133074
0	275913	30612.71248523755	0.166391133074
0	275922	30616.452373299504	0.166391133074
0	275931	30616.992705385815	0.166391133074
0	275940	30617.919260436269	0.383740236443
0	275956	30618.090903468926	0.166391133074
0	275958	30618.407582691532	0.383740236443
0	275967	30621.022320025653	0.166391133074
0	275976	30624.308052470824	0.166391133074
0	275985	30624.744475891891	0.166391133074
0	275994	30625.539487505349	0.166391133074
0	276003	30627.206053549197	0.166391133074
0	276012	30628.039024762267	0.383740236443
0	276021	30629.274923545632	0.166391133074
0	276030	30629.698717070541	0.166391133074
0	276039	30630.307706186675	0.383740236443
0	276048	30631.068445702486	0.166391133074
0	276057	30633.684671102207	0.383740236443
0	276066	30635.131310362103	0.166391133074
0	276075	30637.02385347502	0.383740236443
0	276084	30637.709858151455	0.166391133074
0	276093	30639.792471856633	0.166391133074
0	276115	30640.407092380196	0.166391133074
0	276118	30640.547827556957	0.279100444632
0	276127	30640.724527819855	0.383740236443
0	276129	30640.79023185774	0.166391133074
0	276138	30641.780480058524	0.166391133074
0	276147	30642.204856688518	0.383740236443
0	276156	30642.374827969387	0.166391133074
0	276165	30643.944083403344	0.166391133074
0	276174	30644.323006137563	0.166391133074
0	276183	30644.86465050646	0.166391133074
0	276198	30645.048365649151	0.166391133074
0	276201	30645.189100825912	0.301867990444
0	276216	30646.017219074186	0.166391133074
0	276219	30646.157954250947	0.301745194352
0	276228	30648.428822645355	0.383740236443
0	276237	30648.779398383769	0.166391133074
0	276246	30649.483404994294	0.166391133074
0	276255	30650.72577669835	0.166391133074
0	276264	30651.658832190101	0.166391133074
0	276279	30651.968372475922	0.166391133074
0	276282	30652.109107652683	0.210983711044
0	276291	30652.539207836257	0.166391133074
0	276300	30653.697647760227	0.383740236443