version 3
run General-19-20230606-17:29:19-26436
attr configname General
attr datetime 20230606-17:29:19
attr datetimef 20230606-172919
attr experiment General
attr inifile HeavyTrafficLimits_lambda_1.0-switchProb_0.4-s1ExpMean_mu1_3.ini
attr iterationvars ""
attr iterationvarsd ""
attr iterationvarsf ""
attr measurement ""
attr network HeavyTrafficLimits
attr processid 26436
attr repetition 19
attr replication rep19
attr resultdir results/lambda_1.0-switchProb_0.4-s1ExpMean_mu1_3
attr runnumber 19
attr seedset 19
config network HeavyTrafficLimits
config sim-time-limit 100000s
config repeat 20
config replication-label rep19
config result-dir results/lambda_1.0-switchProb_0.4-s1ExpMean_mu1_3
config warmup-period 30000s
config **.source.lambda 1.0
config **.router.switchProbability 0.4
config **.server1.serviceTime exponential(0.33s)
config **.server2.serviceTime exponential(0.33s)
config **.server3.serviceTime exponential(0.33s)
config **.server1.crashTime 500
config **.server2.crashTime 750
config **.server3.crashTime 1000
config **.S1.serviceTime exponential(0.333s)
config **.server1.queueLength.record true
config **.server1.serviceTime.record true
config **.server2.serviceTime.record true
config **.server3.serviceTime.record true

vector 0 HeavyTrafficLimits.sink lifeTime:vector ETV
attr interpolationmode none
attr recordingmode vector
attr title "lifetime of arrived jobs"
attr unit s
vector 1 HeavyTrafficLimits.queue3 queueLength:vector ETV
attr interpolationmode sample-hold
attr recordingmode vector
attr title "queue length"
vector 2 HeavyTrafficLimits.queue2 queueLength:vector ETV
attr interpolationmode sample-hold
attr recordingmode vector
attr title "queue length"
vector 3 HeavyTrafficLimits.queue1 queueLength:vector ETV
attr interpolationmode sample-hold
attr recordingmode vector
attr title "queue length"
0	270588	30000.198507162294	0.617114021627
0	270594	30000.688361752071	0.506537112104
0	270603	30001.309864536676	0.219636295657
0	270612	30002.158937687522	0.219636295657
0	270628	30003.371982804308	0.219636295657
0	270643	30003.678447016227	0.219636295657
0	270645	30003.711728032178	0.506537112104
0	270648	30004.184399281949	0.639543270223
0	270657	30006.843023358752	0.506537112104
0	270666	30009.859997244392	0.506537112104
0	270675	30011.262596154666	0.506537112104
0	270684	30013.619565774664	0.506537112104
0	270706	30015.600727065375	0.219636295657
0	270708	30015.771592524217	0.506537112104
0	270718	30016.196870574099	0.219636295657
0	270720	30016.244263773988	0.684956834521
0	270729	30018.900134279294	0.506537112104
0	270738	30020.310084752854	0.219636295657
0	270747	30021.106079491834	0.219636295657
0	270756	30022.247059241692	0.219636295657
0	270771	30024.910117150175	0.506537112104
0	270786	30025.382788399946	0.706716886495
0	270789	30025.855459649717	0.87760615289
0	270798	30026.328130899488	1.013421155983
0	270801	30026.800802149259	0.711085069861
0	270810	30027.291939816517	0.219636295657
0	270819	30028.340649779296	0.219636295657
0	270840	30029.033674676233	0.506537112104
0	270843	30029.506345926004	0.78864201687
0	270846	30029.979017175775	1.058744566318
0	270855	30031.190795774017	0.506537112104
0	270870	30035.783047176788	0.506537112104
0	270873	30036.255718426559	0.544316596358
0	270882	30037.115542296066	0.219636295657
0	270891	30038.40741621363	0.506537112104
0	270900	30039.549863744408	0.506537112104
0	270909	30040.069748613049	0.506537112104
0	270925	30042.559021316307	0.219636295657
0	270927	30042.965750802794	0.506537112104
0	270943	30044.783669524043	0.219636295657
0	270945	30044.818782768753	0.506537112104
0	270960	30045.397779100892	0.506537112104
0	270969	30045.870450350663	0.839263155457
0	270985	30046.092796218082	0.219636295657
0	270994	30046.278566651406	0.320207706284
0	270996	30046.343121600434	0.659330098029
0	270999	30046.815792850205	0.670947885093
0	271008	30047.279005071021	0.219636295657
0	271017	30048.817815607297	0.506537112104
0	271026	30050.917782237302	0.219636295657
0	271035	30051.898862503759	0.506537112104
0	271044	30053.515023521028	0.506537112104
0	271053	30055.325764839202	0.506537112104
0	271062	30055.920526901308	0.219636295657
0	271081	30056.973380012254	0.219636295657
0	271087	30057.050330266579	0.506537112104
0	271089	30057.170808823622	0.219636295657
0	271098	30059.27529001341	0.219636295657
0	271107	30060.592730242368	0.506537112104
0	271122	30061.242296261081	0.506537112104
0	271125	30061.714967510852	0.611195283648
0	271140	30064.380454873941	0.506537112104
0	271149	30064.853126123712	0.959390882733
0	271152	30065.325797373483	0.913241885918
0	271161	30066.804818842432	0.219636295657
0	271170	30067.78827532188	0.506537112104
0	271179	30068.395994761997	0.506537112104
0	271188	30070.681792536232	0.219636295657
0	271197	30071.292737697493	0.506537112104
0	271206	30072.811364378938	0.506537112104
0	271222	30073.08572580451	0.251383052051
0	271224	30073.338760758624	0.506537112104
0	271239	30074.058675911504	0.506537112104
0	271242	30074.531347161275	0.888328337662
0	271251	30076.915245288659	0.506537112104
0	271267	30077.19310499851	0.228200017212
0	271276	30077.446139952624	0.506537112104
0	271278	30077.452915436231	0.219636295657
0	271287	30078.381753654569	0.506537112104
0	271299	30079.60499703542	0.219636295657
0	271318	30080.006743541525	0.219636295657
0	271321	30080.084247317164	0.506537112104
0	271323	30080.192513974849	0.297986628834
0	271332	30080.433278593268	0.219636295657
0	271347	30081.123119049854	0.506537112104
0	271350	30081.595790299625	0.705103547404
0	271359	30081.878887871528	0.219636295657
0	271368	30085.209369423299	0.506537112104
0	271377	30085.786850402217	0.219636295657
0	271389	30086.333066261214	0.506537112104
0	271395	30086.819296638212	0.506537112104
0	271410	30087.162156648148	0.219636295657
0	271413	30087.347927081472	0.36634291634
0	271422	30089.60340650198	0.506537112104
0	271431	30090.282041741089	0.506537112104
0	271440	30090.823479760341	0.506537112104
0	271455	30091.680550544671	0.506537112104
0	271458	30092.153221794442	0.969958702771
0	271467	30092.524642610651	0.219636295657
0	271476	30093.532736088279	0.219636295657
0	271485	30095.237532288214	0.506537112104
0	271494	30095.635128538185	0.219636295657
0	271503	30096.320446929597	0.506537112104
0	271512	30099.083778009536	0.506537112104
0	271521	30099.770345110848	0.506537112104
0	271530	30100.835671878705	0.219636295657
0	271539	30101.527437904255	0.219636295657
0	271548	30102.752786892715	0.219636295657
0	271557	30103.253830020803	0.219636295657
0	271566	30104.068098932906	0.219636295657
0	271575	30105.674449506035	0.506537112104
0	271584	30108.392220914435	0.219636295657
0	271593	30109.090440874031	0.219636295657
0	271602	30110.10673377015	0.506537112104
0	271611	30112.194616826767	0.219636295657
0	271620	30113.042006501755	0.506537112104
0	271629	30114.22218183872	0.506537112104
0	271638	30115.688065034126	0.219636295657
0	271654	30117.150460913953	0.252392036728
0	271656	30117.403495868067	0.506537112104
0	271665	30119.812197187183	0.219636295657
0	271681	30120.912993959805	0.219636295657
0	271683	30121.052665098769	0.506537112104
0	271699	30123.556801163095	0.219636295657
0	271704	30123.64719339849	0.506537112104
0	271710	30123.857417793947	0.219636295657
0	271719	30125.074756311357	0.219636295657
0	271728	30125.930680263593	0.506537112104
0	271737	30128.670568712904	0.506537112104
0	271746	30129.754970623505	0.219636295657
0	271755	30130.938298261598	0.506537112104
0	271764	30131.895773391182	0.219636295657
0	271773	30132.522102973307	0.506537112104
0	271782	30133.634012128049	0.219636295657
0	271797	30134.431156720952	0.506537112104
0	271800	30134.903827970723	0.65011371794
0	271816	30135.193446739349	0.219636295657
0	271825	30135.565595189824	0.219636295657
0	271827	30135.658573736271	0.506537112104
0	271836	30139.005358511682	0.506537112104
0	271845	30140.043312462831	0.219636295657
0	271854	30141.996574186044	0.506537112104
0	271863	30143.510250813826	0.506537112104
0	271872	30143.730666743186	0.219636295657
0	271887	30144.545726108633	0.506537112104
0	271890	30145.018397358404	0.519422069699
0	271899	30145.403197142965	0.219636295657
0	271908	30146.13291975505	0.506537112104
0	271917	30146.706103856391	0.506537112104
0	271932	30148.19941299815	0.506537112104
0	271935	30148.672084247921	0.947008824895
0	271944	30150.599614611921	0.219636295657
0	271953	30151.574552083418	0.219636295657
0	271962	30151.830683425475	0.219636295657
0	271971	30153.896640098456	0.506537112104
0	271980	30154.754402990674	0.506537112104
0	271995	30155.380359326451	0.219636295657
0	272004	30155.566129759775	0.354288345889
0	272007	30155.751900193099	0.315712114967
0	272022	30156.242858690667	0.219636295657
0	272025	30156.428629123991	0.285006336928
0	272034	30158.372884383351	0.219636295657
0	272043	30160.236410474339	0.506537112104
0	272059	30161.045433622968	0.219636295657
0	272061	30161.163365792231	0.506537112104
0	272070	30161.684432272853	0.506537112104
0	272079	30161.952880794607	0.219636295657
0	272088	30162.652023901245	0.506537112104
0	272103	30164.132099690367	0.506537112104
0	272112	30164.604770940138	0.509583876671
0	272115	30165.077442189909	0.676022095333
0	272124	30168.707247297813	0.506537112104
0	272139	30172.127988605229	0.506537112104
0	272145	30172.600659855	0.972870043854
0	272151	30172.798948234457	0.219636295657
0	272160	30173.46970532785	0.506537112104
0	272169	30175.237942486987	0.219636295657
0	272184	30176.766314064471	0.506537112104
0	272193	30177.238985314242	0.640649887906
0	272202	30177.711656564013	0.852536575208
0	272205	30178.184327813784	0.738698876119
0	272214	30178.596274805274	0.219636295657
0	272223	30179.403331739868	0.219636295657
0	272232	30180.813599001447	0.219636295657
0	272241	30182.583892976404	0.506537112104
0	272250	30183.703729615899	0.506537112104
0	272265	30184.08375238087	0.219636295657
0	272268	30184.269522814194	0.380351298505
0	272277	30187.991119701269	0.506537112104
0	272286	30188.851793743786	0.506537112104
0	272302	30189.118653154789	0.219636295657
0	272304	30189.577624356859	0.506537112104
0	272313	30190.639852919865	0.506537112104
0	272328	30192.993528863408	0.506537112104
0	272334	30193.466200113179	0.530052034029
0	272340	30193.666398640023	0.219636295657
0	272356	30195.248239097082	0.219636295657
0	272358	30195.569005775862	0.518892630334
0	272373	30196.849500629266	0.219636295657
0	272376	30197.03527106259	0.256952673366
0	272385	30197.931282014775	0.506537112104
0	272394	30199.227184257484	0.506537112104
0	272403	30200.024272668154	0.506537112104
0	272424	30204.69219152069	0.506537112104
0	272430	30205.164862770461	0.946806963599
0	272442	30205.637534020232	1.289958333729
0	272445	30206.110205270003	0.964453505648
0	272454	30206.582876519774	1.407402484128
0	272457	30207.055547769545	0.722217657082
0	272466	30207.556729360414	0.219636295657
0	272475	30210.267120237805	0.506537112104
0	272484	30210.650784182092	0.219636295657
0	272493	30211.87330576787	0.506537112104
0	272502	30213.106809548616	0.219636295657
0	272511	30214.129342550668	0.219636295657
0	272520	30214.640864452968	0.219636295657
0	272529	30215.558379988981	0.219636295657
0	272544	30216.212634070489	0.219636295657
0	272547	30216.398404503813	0.293984699154
0	272556	30216.992674128847	0.219636295657
0	272565	30217.917242042442	0.506537112104
0	272574	30219.140517478348	0.219636295657
0	272583	30219.654938627747	0.219636295657
0	272592	30221.98396288132	0.506537112104
0	272607	30222.895100048253	0.506537112104
0	272610	30223.367771298024	0.940943530179
0	272619	30224.137854447086	0.506537112104
0	272628	30225.476290078467	0.506537112104
0	272637	30226.55654587114	0.219636295657
0	272646	30227.417806614185	0.219636295657
0	272655	30230.416257077167	0.506537112104
0	272664	30231.827797247025	0.506537112104
0	272673	30232.425910105812	0.506537112104
0	272689	30232.97255431403	0.219636295657
0	272691	30233.006359253612	0.506537112104
0	272707	30234.801904945532	0.506537112104
0	272709	30234.923276090106	0.219636295657
0	272718	30235.869047462565	0.506537112104
0	272727	30236.315599158983	0.219636295657
0	272736	30236.849107762337	0.506537112104
0	272758	30238.913719651871	0.219636295657
0	272760	30239.041610659485	0.506537112104
0	272763	30239.514281909256	0.745925624862
0	272772	30239.870633157828	0.219636295657
0	272781	30241.480310222206	0.506537112104
0	272797	30242.533109331404	0.506537112104
0	272802	30242.609296483537	0.219636295657
0	272808	30242.822803862386	0.219636295657
0	272836	30244.885095409035	0.219636295657
0	272838	30244.941758625455	0.506537112104
0	272841	30245.414429875226	0.896830586098
0	272851	30245.887101124997	1.09757608937
0	272853	30246.024852338091	0.219636295657
0	272874	30246.954596696484	0.219636295657
0	272877	30247.140367129808	0.295168596382
0	272880	30247.326137563132	0.453589296169
0	272889	30248.380830253708	0.506537112104
0	272904	30250.629395786559	0.506537112104
0	272907	30251.10206703633	0.771112472344
0	272916	30256.988769380535	0.506537112104
0	272925	30259.642000940786	0.219636295657
0	272934	30259.927112876845	0.219636295657
0	272943	30262.064830433448	0.219636295657
0	272952	30264.899538681477	0.219636295657
0	272961	30265.259715319869	0.219636295657
0	272970	30267.066650763355	0.506537112104
0	272979	30267.5827083956	0.506537112104
0	272988	30269.066851041506	0.219636295657
0	273003	30270.044939137752	0.506537112104
0	273012	30270.517610387523	0.884680292089
0	273021	30270.990281637294	0.628438892806
0	273024	30271.462952887065	0.689008590354
0	273033	30272.975462950161	0.506537112104
0	273042	30273.86381646227	0.506537112104
0	273057	30275.112955926012	0.506537112104
0	273060	30275.585627175783	0.809744139688
0	273076	30275.906575442293	0.219636295657
0	273078	30276.234354142946	0.506537112104
0	273087	30276.867900694078	0.506537112104
0	273103	30277.807556400271	0.219636295657
0	273105	30277.988639560537	0.506537112104
0	273114	30278.281537505407	0.219636295657
0	273123	30278.847379069764	0.219636295657
0	273132	30279.177147573063	0.219636295657
0	273141	30279.766123034527	0.506537112104
0	273150	30280.523060013693	0.506537112104
0	273162	30282.750266976815	0.219636295657
0	273168	30283.235424620532	0.506537112104
0	273177	30284.033136441837	0.506537112104
0	273186	30284.701316001641	0.219636295657
0	273195	30286.383555811349	0.506537112104
0	273210	30292.075419178609	0.219636295657
0	273213	30292.261189611933	0.400218491405
0	273222	30292.905976358993	0.506537112104
0	273237	30293.505324629605	0.506537112104
0	273240	30293.977995879376	0.939684214788
0	273249	30295.243648108623	0.506537112104
0	273258	30295.865199034202	0.506537112104
0	273280	30296.151270499566	0.219636295657
0	273283	30296.33704093289	0.357078709954
0	273291	30296.617213731563	0.506537112104
0	273294	30297.089884981334	0.645983792362
0	273306	30297.799062660125	0.506537112104
0	273318	30298.288225453421	0.506537112104
0	273327	30298.760896703192	0.775458093017
0	273330	30299.233567952963	0.92090725288
0	273339	30303.182742189243	0.219636295657
0	273348	30304.250932845606	0.506537112104
0	273357	30306.271804685635	0.506537112104
0	273366	30306.911774483547	0.219636295657
0	273388	30308.991830727431	0.506537112104
0	273390	30309.033422251484	0.219636295657
0	273393	30309.219192684808	0.30891230642
0	273402	30310.068993672296	0.506537112104
0	273411	30310.317439353773	0.219636295657
0	273427	30311.993734583981	0.506537112104
0	273429	30312.06054448855	0.219636295657
0	273438	30314.734447521242	0.506537112104
0	273454	30316.040431145599	0.506537112104
0	273456	30316.224553923447	0.219636295657
0	273471	30317.870877405767	0.506537112104
0	273474	30318.343548655538	0.959730722977
0	273486	30319.022515959405	0.219636295657
0	273499	30319.2152132369	0.219636295657
0	273507	30319.619488723186	0.506537112104
0	273510	30320.092159972957	0.800538180893
0	273519	30321.352767207929	0.219636295657
0	273528	30322.17777087216	0.506537112104
0	273537	30325.710988610312	0.219636295657
0	273546	30326.787897451492	0.219636295657
0	273555	30328.124104812548	0.506537112104
0	273571	30328.545902647649	0.219636295657
0	273580	30328.786190374579	0.219636295657
0	273582	30328.966090972814	0.506537112104
0	273598	30330.309168385474	0.219636295657
0	273600	30330.485964833235	0.506537112104
0	273615	30331.508551936439	0.506537112104
0	273618	30331.98122318621	0.8385608205
0	273627	30332.625267668758	0.219636295657
0	273636	30335.333668228683	0.506537112104
0	273645	30336.745651998047	0.506537112104
0	273661	30338.802960015737	0.219636295657
0	273663	30339.001746320971	0.506537112104
0	273681	30340.179116605157	0.219636295657
0	273688	30340.364887038481	0.35229163158
0	273690	30340.663867144414	0.506537112104
0	273706	30343.264889501884	0.219636295657
0	273711	30343.585656180664	0.535459959155
0	273717	30343.780372667519	0.219636295657
0	273726	30344.356749010715	0.219636295657
0	273742	30346.542223578161	0.219636295657
0	273744	30346.64756423982	0.506537112104
0	273753	30346.938210452348	0.219636295657
0	273772	30348.128705933389	0.506537112104
0	273778	30348.240086658658	0.219636295657
0	273787	30348.606284915806	0.506537112104
0	273789	30348.695940784693	0.219636295657
0	273798	30349.537373371423	0.506537112104
0	273807	30350.01192908616	0.219636295657
0	273823	30353.312791057449	0.219636295657
0	273825	30353.633557736229	0.528302251772
0	273834	30354.64850809306	0.506537112104
0	273843	30355.295005660283	0.219636295657
0	273852	30355.521759916211	0.219636295657
0	273861	30356.086894118409	0.506537112104
0	273877	30356.423877531677	0.219636295657
0	273879	30356.874080517196	0.506537112104
0	273894	30358.204773075957	0.506537112104
0	273910	30358.528188502156	0.219636295657
0	273912	30358.677444325728	0.73209697975
0	273915	30359.150115575499	0.656050208922
0	273931	30361.049777904335	0.506537112104
0	273933	30361.105334619789	0.219636295657
0	273942	30361.446690151303	0.219636295657
0	273957	30366.202098183809	0.506537112104
0	273960	30366.67476943358	0.538738775562
0	273969	30367.757776142991	0.506537112104
0	273978	30368.639351514156	0.219636295657
0	273987	30369.907497801912	0.506537112104
0	273996	30370.602380884255	0.506537112104
0	274017	30371.359806254832	0.506537112104
0	274027	30371.785316784646	0.219636295657
0	274029	30371.832477504603	0.808277421119
0	274032	30372.305148754374	1.149024829776
0	274041	30373.672421261046	0.219636295657
0	274050	30374.186563986454	0.506537112104
0	274059	30375.165962880346	0.506537112104
0	274068	30375.821768099879	0.506537112104
0	274077	30376.555617050421	0.506537112104
0	274086	30379.0553871694	0.506537112104
0	274102	30379.460595007082	0.219636295657
0	274104	30379.858690160966	0.506537112104
0	274122	30381.155340703613	0.506537112104
0	274128	30381.628011953384	0.709059134249
0	274137	30382.100683203155	0.959670137907
0	274140	30382.573354452926	0.789333074006
0	274162	30383.54890009176	0.506537112104
0	274165	30383.570540757449	0.219636295657
0	274167	30384.021571341531	0.849839786553
0	274176	30386.467467137431	0.506537112104
0	274185	30387.088671716873	0.506537112104
0	274194	30387.723254154254	0.219636295657
0	274203	30388.56421378302	0.219636295657
0	274212	30388.985205223802	0.219636295657
0	274221	30391.706939275016	0.506537112104
0	274230	30393.949841046643	0.506537112104
0	274239	30395.722025609613	0.506537112104
0	274248	30396.09456856384	0.219636295657
0	274257	30396.775958488412	0.506537112104
0	274266	30397.426209027704	0.506537112104
0	274275	30399.703935294108	0.506537112104
0	274284	30401.234330521837	0.506537112104
0	274293	30401.824640392496	0.506537112104
0	274302	30402.294123015538	0.219636295657
0	274311	30402.772853395622	0.219636295657
0	274320	30404.029251420298	0.506537112104
0	274329	30404.785370722764	0.219636295657
0	274344	30406.332555449262	0.506537112104
0	274359	30406.805226699033	0.728863381108
0	274362	30407.277897948804	0.72632550066
0	274371	30407.750569198575	1.196482733772
0	274374	30408.223240448346	0.89851287223
0	274383	30408.741227711258	0.219636295657
0	274405	30409.936723383026	0.225930011747
0	274407	30410.139640670125	0.506537112104
0	274410	30410.612311919896	0.92909069486
0	274431	30411.166118666646	0.506537112104
0	274434	30411.638789916417	0.851570139101
0	274437	30412.111461166188	1.114315629946
0	274459	30414.231945290531	0.219636295657
0	274461	30414.39838485487	0.506537112104
0	274464	30414.871056104641	0.730737395174
0	274473	30415.922859946034	0.506537112104
0	274491	30420.703507594215	0.506537112104
0	274497	30421.176178843986	0.625205751623
0	274500	30421.648850093757	0.973775714854
0	274509	30422.029767865247	0.219636295657
0	274524	30423.993223726137	0.219636295657
0	274527	30424.178994159461	0.280390300727
0	274539	30424.720925620131	0.219636295657
0	274545	30425.201271382008	0.506537112104
0	274561	30430.355166691822	0.506537112104
0	274563	30430.423289854077	0.219636295657
0	274572	30431.16087216561	0.506537112104
0	274581	30432.69417962685	0.219636295657
0	274590	30433.325618835867	0.219636295657
0	274605	30434.545571235643	0.506537112104
0	274614	30435.018242485414	0.940636735629
0	274623	30435.490913735185	0.511493783186
0	274626	30435.963584984956	0.908684678323
0	274635	30436.796926177425	0.506537112104
0	274644	30437.907500571625	0.506537112104
0	274662	30440.721728266811	0.506537112104
0	274671	30441.194399516582	0.610079752063
0	274684	30441.398595316041	0.219636295657
0	274687	30441.584365749365	0.385979456078
0	274689	30441.667070766353	0.94618435557
0	274705	30442.506129889152	0.219636295657
0	274713	30442.945227593546	0.506537112104
0	274723	30443.417898843317	0.86575285551
0	274725	30443.570926265142	0.219636295657
0	274734	30451.711645631843	0.506537112104
0	274743	30454.942090636227	0.506537112104
0	274752	30456.533328312804	0.506537112104
0	274767	30457.087635424395	0.506537112104
0	274770	30457.560306674166	0.721331986096
0	274779	30458.114968424316	0.506537112104
0	274788	30459.253917902635	0.506537112104
0	274810	30461.124660627676	0.219636295657
0	274813	30461.310431061	0.377919789751
0	274815	30461.582089102043	0.506537112104
0	274824	30461.913892227584	0.219636295657
0	274833	30462.469337477881	0.219636295657
0	274842	30463.321745750758	0.506537112104
0	274851	30463.789681790545	0.219636295657
0	274860	30465.985383771895	0.219636295657
0	274869	30466.341893531546	0.219636295657
0	274885	30466.810531944417	0.219636295657
0	274887	30467.053851457111	0.506537112104
0	274896	30468.346107507555	0.506537112104
0	274905	30469.532520947676	0.506537112104
0	274920	30470.157936195786	0.506537112104
0	274923	30470.630607445557	0.769940329478
0	274939	30473.808906991051	0.219636295657
0	274941	30473.878971027074	0.506537112104
0	274956	30474.435977185729	0.506537112104
0	274959	30474.9086484355	0.888989976494
0	274968	30478.530984528277	0.506537112104
0	274983	30479.756958060241	0.506537112104
0	274986	30480.229629310012	0.763134047643
0	274995	30481.842067172199	0.506537112104
0	275010	30482.726302627094	0.506537112104
0	275019	30483.198973876865	0.748243546601
0	275028	30483.671645126636	0.774619311281
0	275031	30484.144316376407	0.524558855503
0	275047	30484.566571767903	0.253170143425
0	275049	30484.819606722017	0.506537112104
0	275058	30485.505145753246	0.506537112104
0	275073	30486.47160986494	0.506537112104
0	275076	30486.944281114711	0.899598165482
0	275098	30488.851085880969	0.506537112104
0	275101	30488.92905422332	0.219636295657
0	275103	30489.32375713074	0.740162871556
0	275119	30489.632105409335	0.219636295657
0	275121	30490.060586913208	0.506537112104
0	275130	30490.579831939914	0.506537112104
0	275139	30493.855531963385	0.506537112104
0	275148	30494.491182015655	0.506537112104
0	275157	30495.719027437118	0.506537112104
0	275173	30496.515243941153	0.219636295657
0	275175	30496.682353711523	0.506537112104
0	275190	30497.245620474825	0.506537112104
0	275193	30497.718291724596	0.787272486217
0	275205	30497.956637583896	0.219636295657
0	275211	30498.451828582187	0.506537112104
0	275220	30501.02418949924	0.219636295657
0	275235	30501.556836440816	0.506537112104
0	275245	30502.029507690587	0.96586502134
0	275247	30502.068950170381	0.219636295657
0	275262	30503.633987009122	0.506537112104
0	275265	30504.106658258893	0.86870961434
0	275274	30504.621744678505	0.219636295657
0	275283	30505.59300289691	0.219636295657
0	275292	30506.963857807489	0.506537112104
0	275301	30510.314753392396	0.219636295657
0	275323	30511.264718351758	0.506537112104
0	275325	30511.377067130789	0.219636295657
0	275328	30511.562837564113	0.385931105218
0	275337	30512.141719062618	0.506537112104
0	275346	30512.516295381555	0.219636295657
0	275355	30518.348790246507	0.506537112104
0	275364	30519.592286441072	0.506537112104
0	275373	30520.122489504842	0.506537112104
0	275382	30521.751036243659	0.219636295657
0	275391	30523.512666379166	0.506537112104
0	275406	30523.890958969696	0.219636295657
0	275409	30524.07672940302	0.38022804241
0	275418	30527.337935622691	0.219636295657
0	275446	30530.970464656914	0.219636295657
0	275448	30531.069643058889	0.506537112104
0	275451	30531.54231430866	0.935791805681
0	275460	30532.014985558431	1.328650769472
0	275463	30532.487656808202	0.712814061224
0	275472	30535.294336834506	0.506537112104
0	275481	30536.938281358651	0.506537112104
0	275490	30537.287643280318	0.219636295657
0	275499	30540.666140114744	0.506537112104
0	275508	30542.367181644461	0.219636295657
0	275517	30543.207479156127	0.506537112104
0	275526	30543.885156960328	0.506537112104
0	275542	30544.483035813737	0.221905948695
0	275544	30544.736070767851	0.506537112104
0	275553	30545.482207825112	0.506537112104
0	275562	30546.096122038486	0.506537112104
0	275571	30547.135664203632	0.506537112104
0	275580	30547.76505013615	0.219636295657
0	275595	30548.506599219922	0.506537112104
0	275598	30548.979270469693	0.796699474817
0	275607	30550.585257890778	0.506537112104
0	275619	30551.249586634606	0.506537112104
0	275625	30551.436822683708	0.219636295657
0	275634	30552.165962032369	0.506537112104
0	275650	30553.243648537446	0.219636295657
0	275652	30553.318270674658	0.506537112104
0	275661	30557.505401871494	0.219636295657
0	275677	30558.646700107884	0.219636295657
0	275682	30558.981860372158	0.506537112104
0	275688	30559.17439802266	0.219636295657
0	275697	30560.805265127297	0.506537112104
0	275706	30561.609791254743	0.506537112104
0	275721	30562.114420225194	0.219636295657
0	275724	30562.300190658518	0.324177857553
0	275740	30564.715526737604	0.219636295657
0	275742	30565.159887823522	0.506537112104
0	275758	30565.500548378333	0.219636295657
0	275760	30565.864219890041	0.506537112104
0	275769	30567.65779971746	0.219636295657
0	275778	30569.779974380238	0.219636295657
0	275787	30570.599139523611	0.506537112104
0	275809	30571.451653084659	0.219636295657
0	275812	30571.596608893639	0.506537112104
0	275814	30571.637423517983	0.374703606664
0	275823	30572.749881964514	0.506537112104
0	275839	30573.822334089135	0.219636295657
0	275841	30573.913045982796	0.506537112104
0	275850	30574.388743747279	0.219636295657
0	275862	30575.438324507818	0.219636295657
0	275868	30575.633162176102	0.219636295657
0	275877	30577.053188071018	0.219636295657
0	275893	30583.540550900585	0.219636295657
0	275895	30583.61147902494	0.506537112104
0	275904	30585.46747045446	0.506537112104
0	275913	30589.714920939039	0.506537112104
0	275922	30593.454809000993	0.506537112104
0	275931	30593.995141087304	0.506537112104
0	275950	30594.704347034389	0.506537112104
0	275956	30594.806438353968	0.219636295657
0	275958	30595.192669289652	0.506537112104
0	275967	30598.024755727142	0.506537112104
0	275982	30601.310488172313	0.506537112104
0	275985	30601.783159422084	0.542784940808
0	275994	30602.255022390391	0.219636295657
0	276003	30604.208489250686	0.506537112104
0	276012	30604.824111360387	0.506537112104
0	276021	30605.990458430674	0.219636295657
0	276036	30606.70115277203	0.506537112104
0	276039	30607.173824021801	0.58756834911
0	276048	30607.783980587528	0.219636295657
0	276057	30610.469757700327	0.506537112104
0	276066	30611.846845247145	0.219636295657
0	276075	30613.80894007314	0.506537112104
0	276084	30614.425393036497	0.219636295657
0	276093	30616.508006741675	0.219636295657
0	276109	30617.122627265238	0.219636295657
0	276111	30617.443393944018	0.512377109234
0	276127	30618.232822925847	0.219636295657
0	276129	30618.23667060104	0.506537112104
0	276144	30619.509971943078	0.506537112104
0	276153	30619.982643192849	0.77218083525
0	276156	30620.45531444262	0.857531700783
0	276165	30621.386674471451	0.219636295657
0	276174	30622.052498022117	0.506537112104
0	276193	30622.307241574567	0.219636295657
0	276199	30622.524822579591	0.248243838599
0	276201	30622.777857533705	0.506537112104
0	276216	30623.74671095874	0.506537112104
0	276219	30624.219382208511	0.973827246392
0	276228	30625.94096542654	0.506537112104
0	276237	30626.508890268323	0.506537112104
0	276246	30626.925996062401	0.219636295657
0	276255	30628.455268582904	0.506537112104
0	276277	30629.388324074655	0.506537112104
0	276280	30629.50710614282	0.219636295657
0	276289	30629.860995324426	0.669668076054
0	276291	30629.981798904364	0.219636295657
0	276300	30631.209790541412	0.506537112104
0	276316	30631.774313598882	0.219636295657
0	276318	30632.098746802948	0.506537112104
0	276327	30632.635598323987	0.506537112104
0	276342	30634.869039886857	0.506537112104
0	276345	30635.341711136628	0.910205907548
0	276354	30636.565141236104	0.219636295657
0	276370	30638.341424649491	0.506537112104
0	276372	30638.484732440075	0.219636295657
0	276381	30638.829353466645	0.219636295657
0	276390	30639.078658453059	0.219636295657
0	276402	30639.734163657477	0.506537112104
0	276414	30640.217108350463	0.506537112104
0	276424	30640.689779600234	0.678415744107
0	276432	30640.730116055359	0.219636295657
0	276435	30640.915886488683	0.224258946841
0	276451	30641.875765319561	0.219636295657
0	276453	30642.067247712688	0.506537112104
0	276462	30644.962871217956	0.506537112104
0	276471	30646.008350083827	0.219636295657
0	276487	30647.849961985657	0.506537112104