version 3
run General-19-20230606-18:00:09-9196
attr configname General
attr datetime 20230606-18:00:09
attr datetimef 20230606-180009
attr experiment General
attr inifile HeavyTrafficLimits_lambda_1.0-switchProb_0.8-s1ExpMean_mu1_3.ini
attr iterationvars ""
attr iterationvarsd ""
attr iterationvarsf ""
attr measurement ""
attr network HeavyTrafficLimits
attr processid 9196
attr repetition 19
attr replication rep19
attr resultdir results/lambda_1.0-switchProb_0.8-s1ExpMean_mu1_3
attr runnumber 19
attr seedset 19
config network HeavyTrafficLimits
config sim-time-limit 100000s
config repeat 20
config replication-label rep19
config result-dir results/lambda_1.0-switchProb_0.8-s1ExpMean_mu1_3
config warmup-period 30000s
config **.source.lambda 1.0
config **.router.switchProbability 0.8
config **.server1.serviceTime exponential(0.33s)
config **.server2.serviceTime exponential(0.33s)
config **.server3.serviceTime exponential(0.33s)
config **.server1.crashTime 500
config **.server2.crashTime 750
config **.server3.crashTime 1000
config **.S1.serviceTime exponential(0.333s)
config **.server1.queueLength.record true
config **.server1.serviceTime.record true
config **.server2.serviceTime.record true
config **.server3.serviceTime.record true

vector 0 HeavyTrafficLimits.sink lifeTime:vector ETV
attr interpolationmode none
attr recordingmode vector
attr title "lifetime of arrived jobs"
attr unit s
vector 1 HeavyTrafficLimits.queue2 queueLength:vector ETV
attr interpolationmode sample-hold
attr recordingmode vector
attr title "queue length"
vector 2 HeavyTrafficLimits.queue1 queueLength:vector ETV
attr interpolationmode sample-hold
attr recordingmode vector
attr title "queue length"
vector 3 HeavyTrafficLimits.queue3 queueLength:vector ETV
attr interpolationmode sample-hold
attr recordingmode vector
attr title "queue length"
0	270594	30000.688361752071	0.506537112104
0	270603	30001.309864536676	0.219636295657
0	270612	30002.158937687522	0.219636295657
0	270627	30003.371982804308	0.219636295657
0	270639	30003.557753237632	0.352562317558
0	270646	30003.743523670956	0.284712950386
0	270648	30004.05139312383	0.506537112104
0	270657	30006.556122542305	0.219636295657
0	270666	30009.573096427945	0.219636295657
0	270675	30010.975695338219	0.219636295657
0	270684	30013.332664958217	0.219636295657
0	270706	30015.600727065375	0.219636295657
0	270709	30015.771592524217	0.506537112104
0	270711	30015.786497498699	0.227190559232
0	270720	30016.196870574099	0.219636295657
0	270729	30018.613233462847	0.219636295657
0	270738	30020.310084752854	0.219636295657
0	270747	30021.106079491834	0.219636295657
0	270756	30022.247059241692	0.219636295657
0	270772	30024.895707809108	0.219636295657
0	270774	30024.910117150175	0.506537112104
0	270783	30025.197489792484	0.219636295657
0	270792	30025.821246855609	0.506537112104
0	270801	30026.309353375055	0.219636295657
0	270810	30027.291939816517	0.219636295657
0	270819	30028.340649779296	0.219636295657
0	270831	30028.746773859786	0.219636295657
0	270844	30029.139908905114	0.219636295657
0	270846	30029.224241021238	0.506537112104
0	270855	30030.90389495757	0.219636295657
0	270864	30035.496146360341	0.219636295657
0	270873	30036.217938942305	0.506537112104
0	270882	30037.115542296066	0.219636295657
0	270891	30038.120515397183	0.219636295657
0	270900	30039.262962927961	0.219636295657
0	270909	30040.069748613049	0.506537112104
0	270925	30042.559021316307	0.219636295657
0	270927	30042.965750802794	0.506537112104
0	270943	30044.783669524043	0.219636295657
0	270945	30044.818782768753	0.506537112104
0	270960	30045.110878284445	0.219636295657
0	270963	30045.296648717769	0.265461522563
0	270985	30046.092796218082	0.219636295657
0	270994	30046.190328614509	0.506537112104
0	270996	30046.278566651406	0.320207706284
0	270999	30046.46433708473	0.319492119618
0	271008	30047.279005071021	0.219636295657
0	271017	30048.53091479085	0.219636295657
0	271026	30050.917782237302	0.219636295657
0	271035	30051.898862503759	0.506537112104
0	271044	30053.515023521028	0.506537112104
0	271053	30055.325764839202	0.506537112104
0	271062	30055.920526901308	0.219636295657
0	271074	30056.763429450132	0.219636295657
0	271083	30056.973380012254	0.219636295657
0	271089	30057.170808823622	0.219636295657
0	271098	30059.27529001341	0.219636295657
0	271107	30060.305829425921	0.219636295657
0	271116	30060.955395444634	0.219636295657
0	271125	30061.610309339308	0.506537112104
0	271140	30064.093554057494	0.219636295657
0	271143	30064.279324490818	0.385589249839
0	271152	30064.919092599669	0.506537112104
0	271161	30066.804818842432	0.219636295657
0	271170	30067.501374505433	0.219636295657
0	271179	30068.395994761997	0.506537112104
0	271188	30070.681792536232	0.219636295657
0	271197	30071.292737697493	0.506537112104
0	271206	30072.811364378938	0.506537112104
0	271221	30073.051859942177	0.219636295657
0	271224	30073.237630375501	0.403287623042
0	271239	30073.771775095057	0.219636295657
0	271242	30073.957545528381	0.314526704768
0	271251	30076.628344472212	0.219636295657
0	271266	30077.159239136177	0.219636295657
0	271275	30077.345009569501	0.380104588203
0	271278	30077.530780002825	0.297500862251
0	271287	30078.381753654569	0.506537112104
0	271299	30079.60499703542	0.219636295657
0	271318	30080.006743541525	0.219636295657
0	271321	30080.084247317164	0.506537112104
0	271323	30080.192513974849	0.297986628834
0	271332	30080.433278593268	0.219636295657
0	271348	30081.110323047878	0.219636295657
0	271350	30081.123119049854	0.506537112104
0	271359	30081.878887871528	0.219636295657
0	271368	30084.922468606852	0.219636295657
0	271377	30085.786850402217	0.219636295657
0	271386	30086.046165444767	0.219636295657
0	271395	30086.532395821765	0.219636295657
0	271410	30087.162156648148	0.219636295657
0	271413	30087.347927081472	0.36634291634
0	271422	30089.316505685533	0.219636295657
0	271431	30089.995140924642	0.219636295657
0	271440	30090.823479760341	0.506537112104
0	271456	30091.427515590557	0.244252498886
0	271458	30091.680550544671	0.506537112104
0	271467	30092.524642610651	0.219636295657
0	271476	30093.532736088279	0.219636295657
0	271485	30094.950631471767	0.219636295657
0	271494	30095.635128538185	0.219636295657
0	271503	30096.03354611315	0.219636295657
0	271512	30098.796877193089	0.219636295657
0	271521	30099.770345110848	0.506537112104
0	271530	30100.835671878705	0.219636295657
0	271539	30101.527437904255	0.219636295657
0	271548	30102.752786892715	0.219636295657
0	271557	30103.253830020803	0.219636295657
0	271566	30104.068098932906	0.219636295657
0	271575	30105.387548689588	0.219636295657
0	271584	30108.392220914435	0.219636295657
0	271593	30109.090440874031	0.219636295657
0	271602	30110.10673377015	0.506537112104
0	271611	30112.194616826767	0.219636295657
0	271620	30113.042006501755	0.506537112104
0	271629	30113.935281022273	0.219636295657
0	271638	30115.688065034126	0.219636295657
0	271654	30117.150460913953	0.252392036728
0	271656	30117.403495868067	0.506537112104
0	271665	30119.812197187183	0.219636295657
0	271680	30120.765764282322	0.219636295657
0	271683	30120.951534715646	0.258177051498
0	271695	30123.360292582043	0.219636295657
0	271701	30123.556801163095	0.219636295657
0	271710	30123.857417793947	0.219636295657
0	271719	30125.074756311357	0.219636295657
0	271728	30125.643779447146	0.219636295657
0	271737	30128.670568712904	0.506537112104
0	271746	30129.754970623505	0.219636295657
0	271755	30130.651397445151	0.219636295657
0	271764	30131.895773391182	0.219636295657
0	271773	30132.23520215686	0.219636295657
0	271782	30133.634012128049	0.219636295657
0	271791	30134.144255904505	0.219636295657
0	271800	30134.47335054844	0.219636295657
0	271816	30135.193446739349	0.219636295657
0	271825	30135.565595189824	0.219636295657
0	271827	30135.658573736271	0.506537112104
0	271836	30138.718457695235	0.219636295657
0	271845	30140.043312462831	0.219636295657
0	271854	30141.709673369597	0.219636295657
0	271863	30143.223349997379	0.219636295657
0	271872	30143.730666743186	0.219636295657
0	271881	30144.258825292186	0.219636295657
0	271890	30144.718611584362	0.219636295657
0	271899	30145.403197142965	0.219636295657
0	271908	30145.846018938603	0.219636295657
0	271917	30146.419203039944	0.219636295657
0	271932	30147.912512181703	0.219636295657
0	271935	30148.098282615027	0.373207192001
0	271944	30150.599614611921	0.219636295657
0	271953	30151.574552083418	0.219636295657
0	271962	30151.830683425475	0.219636295657
0	271971	30153.896640098456	0.506537112104
0	271980	30154.467502174227	0.219636295657
0	271995	30155.380359326451	0.219636295657
0	272004	30155.566129759775	0.354288345889
0	272007	30155.751900193099	0.315712114967
0	272022	30156.242858690667	0.219636295657
0	272025	30156.428629123991	0.285006336928
0	272034	30158.372884383351	0.219636295657
0	272043	30160.236410474339	0.506537112104
0	272058	30160.876464975784	0.219636295657
0	272061	30161.062235409108	0.236438081797
0	272070	30161.397531456406	0.219636295657
0	272079	30161.952880794607	0.219636295657
0	272088	30162.652023901245	0.506537112104
0	272097	30163.84519887392	0.219636295657
0	272113	30164.601724175571	0.506537112104
0	272115	30164.621056390233	0.219636295657
0	272124	30168.707247297813	0.506537112104
0	272140	30171.841087788782	0.219636295657
0	272142	30172.161854467562	0.534064656416
0	272151	30172.798948234457	0.219636295657
0	272160	30173.182804511403	0.219636295657
0	272169	30175.237942486987	0.219636295657
0	272178	30176.479413248024	0.219636295657
0	272187	30176.817971721993	0.219636295657
0	272196	30177.078756284462	0.219636295657
0	272205	30177.665265233322	0.219636295657
0	272214	30178.596274805274	0.219636295657
0	272223	30179.403331739868	0.219636295657
0	272232	30180.813599001447	0.219636295657
0	272241	30182.296992159957	0.219636295657
0	272250	30183.416828799452	0.219636295657
0	272265	30184.08375238087	0.219636295657
0	272268	30184.269522814194	0.380351298505
0	272277	30187.991119701269	0.506537112104
0	272286	30188.564892927339	0.219636295657
0	272302	30189.118653154789	0.219636295657
0	272304	30189.577624356859	0.506537112104
0	272313	30190.352952103418	0.219636295657
0	272322	30192.706628046961	0.219636295657
0	272331	30193.155784374807	0.219636295657
0	272340	30193.666398640023	0.219636295657
0	272356	30195.248239097082	0.219636295657
0	272358	30195.569005775862	0.518892630334
0	272373	30196.849500629266	0.219636295657
0	272376	30197.03527106259	0.256952673366
0	272385	30197.644381198328	0.219636295657
0	272394	30199.227184257484	0.506537112104
0	272403	30200.024272668154	0.506537112104
0	272425	30204.439156566576	0.221100759714
0	272428	30204.6249269999	0.277351313397
0	272430	30204.69219152069	0.506537112104
0	272445	30205.365388060012	0.219636295657
0	272448	30205.551158493336	0.37568445769
0	272457	30206.55296640812	0.219636295657
0	272466	30207.556729360414	0.219636295657
0	272475	30209.980219421358	0.219636295657
0	272484	30210.650784182092	0.219636295657
0	272493	30211.87330576787	0.506537112104
0	272502	30213.106809548616	0.219636295657
0	272511	30214.129342550668	0.219636295657
0	272520	30214.640864452968	0.219636295657
0	272529	30215.558379988981	0.219636295657
0	272544	30216.212634070489	0.219636295657
0	272547	30216.398404503813	0.293984699154
0	272556	30216.992674128847	0.219636295657
0	272565	30217.630341225995	0.219636295657
0	272574	30219.140517478348	0.219636295657
0	272583	30219.654938627747	0.219636295657
0	272592	30221.697062064873	0.219636295657
0	272608	30222.646464063502	0.219636295657
0	272610	30222.895100048253	0.506537112104
0	272619	30224.137854447086	0.506537112104
0	272628	30225.476290078467	0.506537112104
0	272637	30226.55654587114	0.219636295657
0	272646	30227.417806614185	0.219636295657
0	272655	30230.12935626072	0.219636295657
0	272664	30231.540896430578	0.219636295657
0	272673	30232.139009289365	0.219636295657
0	272682	30232.719458437165	0.219636295657
0	272691	30232.97255431403	0.219636295657
0	272700	30234.515004129085	0.219636295657
0	272709	30234.923276090106	0.219636295657
0	272718	30235.582146646118	0.219636295657
0	272727	30236.315599158983	0.219636295657
0	272736	30236.56220694589	0.219636295657
0	272751	30238.754709843038	0.219636295657
0	272761	30238.940480276362	0.246396920148
0	272763	30239.274893396498	0.506537112104
0	272772	30239.870633157828	0.219636295657
0	272781	30241.193409405759	0.219636295657
0	272797	30242.533109331404	0.506537112104
0	272802	30242.609296483537	0.219636295657
0	272808	30242.822803862386	0.219636295657
0	272830	30244.737235584785	0.219636295657
0	272839	30244.923006018109	0.257546904731
0	272842	30244.941758625455	0.506537112104
0	272844	30245.108776451433	0.319251415806
0	272853	30246.024852338091	0.219636295657
0	272874	30246.954596696484	0.219636295657
0	272877	30247.140367129808	0.295168596382
0	272880	30247.326137563132	0.453589296169
0	272889	30248.093929437261	0.219636295657
0	272905	30250.550590859643	0.219636295657
0	272907	30250.629395786559	0.506537112104
0	272916	30256.701868564088	0.219636295657
0	272925	30259.642000940786	0.219636295657
0	272934	30259.927112876845	0.219636295657
0	272943	30262.064830433448	0.219636295657
0	272952	30264.899538681477	0.219636295657
0	272961	30265.259715319869	0.219636295657
0	272970	30267.066650763355	0.506537112104
0	272979	30267.5827083956	0.506537112104
0	272988	30269.066851041506	0.219636295657
0	273004	30269.758038321305	0.219636295657
0	273006	30270.139467207538	0.506537112104
0	273015	30270.581479040145	0.219636295657
0	273024	30271.280481408815	0.506537112104
0	273033	30272.975462950161	0.506537112104
0	273042	30273.86381646227	0.506537112104
0	273058	30274.995519331752	0.219636295657
0	273060	30275.112955926012	0.506537112104
0	273075	30275.906575442293	0.219636295657
0	273078	30276.092345875617	0.364528844775
0	273087	30276.867900694078	0.506537112104
0	273103	30277.807556400271	0.219636295657
0	273105	30277.988639560537	0.506537112104
0	273114	30278.281537505407	0.219636295657
0	273123	30278.847379069764	0.219636295657
0	273132	30279.177147573063	0.219636295657
0	273141	30279.47922221808	0.219636295657
0	273150	30280.236159197246	0.219636295657
0	273162	30282.750266976815	0.219636295657
0	273168	30282.948523804085	0.219636295657
0	273177	30283.74623562539	0.219636295657
0	273186	30284.701316001641	0.219636295657
0	273195	30286.383555811349	0.506537112104
0	273210	30292.075419178609	0.219636295657
0	273213	30292.261189611933	0.400218491405
0	273222	30292.619075542546	0.219636295657
0	273237	30293.218423813158	0.219636295657
0	273240	30293.404194246482	0.365882581894
0	273249	30294.956747292176	0.219636295657
0	273258	30295.865199034202	0.506537112104
0	273280	30296.151270499566	0.219636295657
0	273283	30296.33704093289	0.357078709954
0	273291	30296.617213731563	0.506537112104
0	273294	30297.089884981334	0.645983792362
0	273303	30297.512161843678	0.219636295657
0	273315	30298.001324636974	0.219636295657
0	273327	30298.491975722279	0.506537112104
0	273330	30298.96464697205	0.651986271967
0	273339	30303.182742189243	0.219636295657
0	273348	30303.964032029159	0.219636295657
0	273357	30305.984903869188	0.219636295657
0	273366	30306.911774483547	0.219636295657
0	273388	30308.991830727431	0.506537112104
0	273390	30309.033422251484	0.219636295657
0	273393	30309.219192684808	0.30891230642
0	273402	30310.068993672296	0.506537112104
0	273411	30310.317439353773	0.219636295657
0	273420	30311.706833767534	0.219636295657
0	273429	30312.06054448855	0.219636295657
0	273438	30314.447546704795	0.219636295657
0	273447	30315.753530329152	0.219636295657
0	273456	30316.224553923447	0.219636295657
0	273471	30317.870877405767	0.506537112104
0	273474	30318.343548655538	0.959730722977
0	273486	30319.022515959405	0.219636295657
0	273499	30319.2152132369	0.219636295657
0	273507	30319.619488723186	0.506537112104
0	273510	30320.092159972957	0.800538180893
0	273519	30321.352767207929	0.219636295657
0	273528	30321.890870055713	0.219636295657
0	273537	30325.710988610312	0.219636295657
0	273546	30326.787897451492	0.219636295657
0	273555	30327.837203996101	0.219636295657
0	273571	30328.545902647649	0.219636295657
0	273580	30328.786190374579	0.219636295657
0	273582	30328.966090972814	0.506537112104
0	273597	30330.199064016788	0.219636295657
0	273600	30330.384834450112	0.295302360295
0	273616	30331.221651119992	0.219636295657
0	273618	30331.649199477814	0.506537112104
0	273627	30332.625267668758	0.219636295657
0	273636	30335.046767412236	0.219636295657
0	273645	30336.4587511816	0.219636295657
0	273661	30338.802960015737	0.219636295657
0	273663	30339.001746320971	0.506537112104
0	273681	30340.179116605157	0.219636295657
0	273687	30340.364887038481	0.35229163158
0	273690	30340.550657471805	0.393327439495
0	273705	30343.264889501884	0.219636295657
0	273708	30343.450659935208	0.400463713699
0	273717	30343.780372667519	0.219636295657
0	273726	30344.356749010715	0.219636295657
0	273742	30346.542223578161	0.219636295657
0	273744	30346.64756423982	0.506537112104
0	273753	30346.938210452348	0.219636295657
0	273772	30348.128705933389	0.506537112104
0	273777	30348.240086658658	0.219636295657
0	273780	30348.425857091982	0.32610928828
0	273789	30348.695940784693	0.219636295657
0	273798	30349.250472554976	0.219636295657
0	273807	30350.01192908616	0.219636295657
0	273823	30353.312791057449	0.219636295657
0	273825	30353.633557736229	0.528302251772
0	273834	30354.64850809306	0.506537112104
0	273843	30355.295005660283	0.219636295657
0	273852	30355.521759916211	0.219636295657
0	273861	30355.799993301962	0.219636295657
0	273876	30356.423877531677	0.219636295657
0	273879	30356.609647965001	0.242104559909
0	273888	30357.91787225951	0.219636295657
0	273904	30358.451884458082	0.506537112104
0	273913	30358.528188502156	0.219636295657
0	273915	30359.000602478681	0.506537112104
0	273924	30360.762877087888	0.219636295657
0	273933	30361.105334619789	0.219636295657
0	273942	30361.446690151303	0.219636295657
0	273951	30365.915197367362	0.219636295657
0	273960	30366.355666953675	0.219636295657
0	273969	30367.757776142991	0.506537112104
0	273978	30368.639351514156	0.219636295657
0	273987	30369.620596985465	0.219636295657
0	273996	30370.315480067808	0.219636295657
0	274011	30371.072905438385	0.219636295657
0	274021	30371.258675871709	0.234475788225
0	274030	30371.662661036702	0.506537112104
0	274032	30371.785316784646	0.219636295657
0	274041	30373.672421261046	0.219636295657
0	274050	30374.186563986454	0.506537112104
0	274059	30374.879062063899	0.219636295657
0	274068	30375.534867283432	0.219636295657
0	274077	30376.268716233974	0.219636295657
0	274086	30379.0553871694	0.506537112104
0	274101	30379.460595007082	0.219636295657
0	274104	30379.646365440406	0.294212391544
0	274113	30380.868439887166	0.219636295657
0	274122	30381.138589114792	0.219636295657
0	274131	30381.360649360905	0.219636295657
0	274140	30382.003657674577	0.219636295657
0	274155	30383.261999275313	0.219636295657
0	274164	30383.447769708637	0.276038153659
0	274167	30383.633540141961	0.282635680169
0	274176	30386.180566320984	0.219636295657
0	274185	30387.088671716873	0.506537112104
0	274194	30387.723254154254	0.219636295657
0	274203	30388.56421378302	0.219636295657
0	274212	30388.985205223802	0.219636295657
0	274221	30391.706939275016	0.506537112104
0	274230	30393.662940230196	0.219636295657
0	274239	30395.435124793166	0.219636295657
0	274248	30396.09456856384	0.219636295657
0	274257	30396.489057671965	0.219636295657
0	274266	30397.139308211257	0.219636295657
0	274275	30399.703935294108	0.506537112104
0	274284	30401.234330521837	0.506537112104
0	274293	30401.537739576049	0.219636295657
0	274302	30402.294123015538	0.219636295657
0	274311	30402.772853395622	0.219636295657
0	274320	30403.742350603851	0.219636295657
0	274329	30404.785370722764	0.219636295657
0	274345	30406.295999613582	0.219636295657
0	274347	30406.332555449262	0.506537112104
0	274363	30406.771208743801	0.219636295657
0	274365	30407.091975422581	0.537888957778
0	274374	30407.83126468822	0.506537112104
0	274383	30408.741227711258	0.219636295657
0	274404	30409.852739853678	0.219636295657
0	274407	30410.038510287002	0.355289061966
0	274410	30410.224280720326	0.513487349047
0	274425	30410.879217850199	0.219636295657
0	274434	30411.064988283523	0.277768506207
0	274437	30411.250758716847	0.253613180605
0	274452	30414.111484038423	0.219636295657
0	274462	30414.297254471747	0.284945476873
0	274464	30414.646855821571	0.506537112104
0	274473	30415.635959129587	0.219636295657
0	274482	30420.416606777768	0.219636295657
0	274498	30420.89471067456	0.219636295657
0	274500	30421.057510204467	0.506537112104
0	274509	30422.029767865247	0.219636295657
0	274524	30423.993223726137	0.219636295657
0	274527	30424.178994159461	0.280390300727
0	274539	30424.720925620131	0.219636295657
0	274545	30424.914370565561	0.219636295657
0	274554	30430.068265875375	0.219636295657
0	274563	30430.423289854077	0.219636295657
0	274572	30430.873971349163	0.219636295657
0	274581	30432.69417962685	0.219636295657
0	274590	30433.325618835867	0.219636295657
0	274605	30434.545571235643	0.506537112104
0	274615	30435.018242485414	0.940636735629
0	274624	30435.199056247656	0.219636295657
0	274626	30435.561437418737	0.506537112104
0	274635	30436.796926177425	0.506537112104
0	274644	30437.620599755178	0.219636295657
0	274653	30440.434827450364	0.219636295657
0	274668	30440.803956060176	0.219636295657
0	274671	30440.9897264935	0.268840082717
0	274686	30441.398595316041	0.219636295657
0	274689	30441.584365749365	0.385979456078
0	274704	30442.506129889152	0.219636295657
0	274713	30442.691900322476	0.253209841034
0	274716	30442.8776707558	0.325524767993
0	274725	30443.570926265142	0.219636295657
0	274734	30451.424744815396	0.219636295657
0	274743	30454.65518981978	0.219636295657
0	274752	30456.533328312804	0.506537112104
0	274768	30457.058610983727	0.219636295657
0	274770	30457.087635424395	0.506537112104
0	274779	30458.114968424316	0.506537112104
0	274788	30459.253917902635	0.506537112104
0	274810	30461.124660627676	0.219636295657
0	274813	30461.310431061	0.377919789751
0	274815	30461.582089102043	0.506537112104
0	274824	30461.913892227584	0.219636295657
0	274833	30462.469337477881	0.219636295657
0	274842	30463.034844934311	0.219636295657
0	274851	30463.789681790545	0.219636295657
0	274860	30465.985383771895	0.219636295657
0	274869	30466.341893531546	0.219636295657
0	274884	30466.766950640664	0.219636295657
0	274887	30466.952721073988	0.361825425228
0	274896	30468.059206691108	0.219636295657
0	274905	30469.532520947676	0.506537112104
0	274917	30469.871035379339	0.219636295657
0	274923	30470.080303411736	0.219636295657
0	274935	30473.592070210627	0.219636295657
0	274941	30473.808906991051	0.219636295657
0	274956	30474.149076369282	0.219636295657
0	274959	30474.334846802606	0.3151883436
0	274968	30478.530984528277	0.506537112104
0	274980	30479.470057243794	0.219636295657
0	274986	30479.973032374473	0.506537112104
0	274995	30481.555166355752	0.219636295657
0	275004	30482.439401810647	0.219636295657
0	275013	30482.670366625921	0.219636295657
0	275022	30483.116662111012	0.219636295657
0	275031	30483.839393816561	0.219636295657
0	275046	30484.53270590557	0.219636295657
0	275049	30484.718476338894	0.405074714416
0	275058	30485.505145753246	0.506537112104
0	275074	30486.264319244886	0.219636295657
0	275076	30486.47160986494	0.506537112104
0	275098	30488.803230554841	0.219636295657
0	275101	30488.851085880969	0.506537112104
0	275103	30488.989000988165	0.279583060502
0	275118	30489.632105409335	0.219636295657
0	275121	30489.817875842659	0.263826041555
0	275130	30490.292931123467	0.219636295657
0	275139	30493.568631146938	0.219636295657
0	275148	30494.204281199208	0.219636295657
0	275157	30495.432126620671	0.219636295657
0	275172	30496.395452895076	0.219636295657
0	275175	30496.5812233284	0.285615682904
0	275190	30497.245620474825	0.506537112104
0	275193	30497.718291724596	0.787272486217
0	275205	30497.956637583896	0.219636295657
0	275211	30498.16492776574	0.219636295657
0	275220	30501.02418949924	0.219636295657
0	275236	30501.269935624369	0.219636295657
0	275238	30501.590702303149	0.527059633902
0	275247	30502.068950170381	0.219636295657
0	275262	30503.347086192675	0.219636295657
0	275265	30503.532856625999	0.294907981446
0	275274	30504.621744678505	0.219636295657
0	275283	30505.59300289691	0.219636295657
0	275292	30506.676956991042	0.219636295657
0	275301	30510.314753392396	0.219636295657
0	275310	30510.977817535311	0.219636295657
0	275325	30511.377067130789	0.219636295657
0	275328	30511.562837564113	0.385931105218
0	275337	30511.854818246171	0.219636295657
0	275346	30512.516295381555	0.219636295657
0	275355	30518.06188943006	0.219636295657
0	275364	30519.305385624625	0.219636295657
0	275373	30519.835588688395	0.219636295657
0	275382	30521.751036243659	0.219636295657
0	275391	30523.225765562719	0.219636295657
0	275406	30523.890958969696	0.219636295657
0	275409	30524.07672940302	0.38022804241
0	275418	30527.337935622691	0.219636295657
0	275443	30530.782742242442	0.219636295657
0	275449	30530.968512675766	0.361990172787
0	275452	30531.15428310909	0.403454747833
0	275454	30531.192871901063	0.506537112104
0	275463	30531.994479042635	0.219636295657
0	275472	30535.007436018059	0.219636295657
0	275481	30536.938281358651	0.506537112104
0	275490	30537.287643280318	0.219636295657
0	275499	30540.666140114744	0.506537112104
0	275508	30542.367181644461	0.219636295657
0	275517	30542.92057833968	0.219636295657
0	275526	30543.885156960328	0.506537112104
0	275541	30544.449169951404	0.219636295657
0	275544	30544.634940384728	0.373810519686
0	275553	30545.195307008665	0.219636295657
0	275562	30546.096122038486	0.506537112104
0	275571	30546.848763387185	0.219636295657
0	275580	30547.76505013615	0.219636295657
0	275596	30548.219698403475	0.219636295657
0	275598	30548.68910810698	0.506537112104
0	275607	30550.298357074331	0.219636295657
0	275616	30550.962685818159	0.219636295657
0	275625	30551.436822683708	0.219636295657
0	275634	30551.879061215922	0.219636295657
0	275646	30553.031369858211	0.219636295657
0	275652	30553.243648537446	0.219636295657
0	275661	30557.505401871494	0.219636295657
0	275676	30558.646700107884	0.219636295657
0	275679	30558.832470541208	0.357147281154
0	275688	30559.17439802266	0.219636295657
0	275697	30560.51836431085	0.219636295657
0	275706	30561.322890438296	0.219636295657
0	275721	30562.114420225194	0.219636295657
0	275724	30562.300190658518	0.324177857553
0	275740	30564.715526737604	0.219636295657
0	275742	30565.159887823522	0.506537112104
0	275757	30565.500548378333	0.219636295657
0	275760	30565.686318811657	0.32863603372
0	275769	30567.65779971746	0.219636295657
0	275778	30569.779974380238	0.219636295657
0	275787	30570.599139523611	0.506537112104
0	275809	30571.451653084659	0.219636295657
0	275812	30571.596608893639	0.506537112104
0	275814	30571.637423517983	0.374703606664
0	275823	30572.462981148067	0.219636295657
0	275835	30573.626145166349	0.219636295657
0	275841	30573.822334089135	0.219636295657
0	275850	30574.388743747279	0.219636295657
0	275862	30575.438324507818	0.219636295657
0	275868	30575.633162176102	0.219636295657
0	275877	30577.053188071018	0.219636295657
0	275893	30583.540550900585	0.219636295657
0	275895	30583.61147902494	0.506537112104
0	275904	30585.180569638013	0.219636295657
0	275913	30589.428020122592	0.219636295657
0	275922	30593.167908184546	0.219636295657
0	275931	30593.708240270857	0.219636295657
0	275950	30594.704347034389	0.506537112104
0	275956	30594.806438353968	0.219636295657
0	275958	30595.192669289652	0.506537112104
0	275967	30597.737854910695	0.219636295657
0	275976	30601.023587355866	0.219636295657
0	275985	30601.460010776933	0.219636295657
0	275994	30602.255022390391	0.219636295657
0	276003	30603.921588434239	0.219636295657
0	276012	30604.824111360387	0.506537112104
0	276021	30605.990458430674	0.219636295657
0	276030	30606.414251955583	0.219636295657
0	276039	30607.092792784795	0.506537112104
0	276048	30607.783980587528	0.219636295657
0	276057	30610.469757700327	0.506537112104
0	276066	30611.846845247145	0.219636295657
0	276075	30613.80894007314	0.506537112104
0	276084	30614.425393036497	0.219636295657
0	276093	30616.508006741675	0.219636295657
0	276108	30617.122627265238	0.219636295657
0	276111	30617.308397698562	0.377380863778
0	276127	30618.232822925847	0.219636295657
0	276129	30618.23667060104	0.506537112104
0	276141	30619.223071126631	0.219636295657
0	276154	30619.716999469703	0.506537112104
0	276156	30619.817419037494	0.219636295657
0	276165	30621.386674471451	0.219636295657
0	276174	30621.76559720567	0.219636295657
0	276192	30622.307241574567	0.219636295657
0	276198	30622.493012007891	0.22169158629
0	276201	30622.678782441215	0.402203700223
0	276216	30623.459810142293	0.219636295657
0	276219	30623.645580575617	0.400025613498
0	276228	30625.94096542654	0.506537112104
0	276237	30626.221989451876	0.219636295657
0	276246	30626.925996062401	0.219636295657
0	276255	30628.168367766457	0.219636295657
0	276264	30629.101423258208	0.219636295657
0	276279	30629.410963544029	0.219636295657
0	276282	30629.596733977353	0.30926413019
0	276291	30629.981798904364	0.219636295657
0	276300	30631.209790541412	0.506537112104
0	276316	30631.774313598882	0.219636295657
0	276318	30632.098746802948	0.506537112104
0	276327	30632.635598323987	0.506537112104
0	276343	30634.651141524737	0.219636295657
0	276345	30634.869039886857	0.506537112104
0	276354	30636.565141236104	0.219636295657
0	276370	30638.341424649491	0.506537112104
0	276372	30638.484732440075	0.219636295657
0	276381	30638.829353466645	0.219636295657
0	276390	30639.078658453059	0.219636295657
0	276399	30639.44726284103	0.219636295657
0	276408	30639.930207534016	0.219636295657
0	276417	30640.231000151784	0.219636295657
0	276432	30640.730116055359	0.219636295657
0	276435	30640.915886488683	0.224258946841
0	276450	30641.780346896241	0.219636295657
0	276453	30641.966117329565	0.309988305661
0	276462	30644.675970401509	0.219636295657
0	276471	30646.008350083827	0.219636295657
0	276480	30647.56306116921	0.219636295657
0	276489	30648.007999902411	0.219636295657