version 3
run General-19-20230606-17:13:01-28292
attr configname General
attr datetime 20230606-17:13:01
attr datetimef 20230606-171301
attr experiment General
attr inifile HeavyTrafficLimits_lambda_1.0-switchProb_0.2-serviceTime_exponential(0.25s).ini
attr iterationvars ""
attr iterationvarsd ""
attr iterationvarsf ""
attr measurement ""
attr network HeavyTrafficLimits
attr processid 28292
attr repetition 19
attr replication rep19
attr resultdir results/lambda_1.0-switchProb_0.2-serviceTime_exponential(0.25s)
attr runnumber 19
attr seedset 19
config network HeavyTrafficLimits
config sim-time-limit 100000s
config repeat 20
config replication-label rep19
config result-dir results/lambda_1.0-switchProb_0.2-serviceTime_exponential(0.25s)
config warmup-period 30000s
config **.source.lambda 1.0
config **.router.switchProbability 0.2
config **.server1.serviceTime exponential(0.25s)
config **.server2.serviceTime exponential(0.25s)
config **.server3.serviceTime exponential(0.25s)
config **.server1.crashTime 500
config **.server2.crashTime 750
config **.server3.crashTime 1000
config **.server1.queueLength.record true
config **.server1.serviceTime.record true
config **.server2.serviceTime.record true
config **.server3.serviceTime.record true

vector 0 HeavyTrafficLimits.sink lifeTime:vector ETV
attr interpolationmode none
attr recordingmode vector
attr title "lifetime of arrived jobs"
attr unit s
vector 1 HeavyTrafficLimits.queue1 queueLength:vector ETV
attr interpolationmode sample-hold
attr recordingmode vector
attr title "queue length"
vector 2 HeavyTrafficLimits.queue3 queueLength:vector ETV
attr interpolationmode sample-hold
attr recordingmode vector
attr title "queue length"
vector 3 HeavyTrafficLimits.queue2 queueLength:vector ETV
attr interpolationmode sample-hold
attr recordingmode vector
attr title "queue length"
0	270405	30000.290897401542	0.383740236443
0	270414	30001.141774606717	0.383740236443
0	270423	30003.655417938075	0.383740236443
0	270432	30005.286001964266	0.166391133074
0	270441	30007.805586343954	0.383740236443
0	270463	30010.539244121288	0.168805175608
0	270465	30010.694554444845	0.383740236443
0	270468	30011.052638724975	0.705441693074
0	270477	30011.780052914249	0.383740236443
0	270486	30012.770076331897	0.166391133074
0	270495	30014.620965458375	0.383740236443
0	270504	30015.56587213727	0.383740236443
0	270519	30016.780259636691	0.383740236443
0	270522	30017.138343916821	0.731827535368
0	270538	30018.603377823134	0.166391133074
0	270540	30018.924861291148	0.383740236443
0	270567	30021.700637420741	0.383740236443
0	270570	30022.058721700871	0.695192797458
0	270573	30022.416805981001	1.008609838539
0	270576	30022.774890261131	1.278323458305
0	270585	30023.480745510302	0.383740236443
0	270594	30024.081177009602	0.383740236443
0	270603	30024.772231507285	0.166391133074
0	270612	30025.8386537615	0.383740236443
0	270628	30026.834349774917	0.166391133074
0	270643	30027.104543289709	0.383740236443
0	270646	30027.140813986836	0.166391133074
0	270648	30027.462627569839	0.402159424921
0	270657	30030.235838616283	0.383740236443
0	270666	30033.252812501923	0.383740236443
0	270675	30034.655411412197	0.383740236443
0	270684	30037.012381032195	0.383740236443
0	270700	30039.063094035984	0.166391133074
0	270708	30039.164407781748	0.383740236443
0	270718	30039.522492061878	0.447572989219
0	270720	30039.659237544708	0.166391133074
0	270729	30042.292949536825	0.383740236443
0	270738	30043.989800826832	0.383740236443
0	270747	30044.568446462443	0.166391133074
0	270756	30045.92677531567	0.383740236443
0	270771	30048.302932407706	0.383740236443
0	270780	30048.661016687836	0.469333041193
0	270789	30049.019100967966	0.525635337947
0	270792	30049.377185248096	0.546863371399
0	270801	30049.989069449033	0.383740236443
0	270810	30050.754306787126	0.166391133074
0	270819	30051.803016749905	0.166391133074
0	270834	30052.426489933764	0.383740236443
0	270843	30052.784574213894	0.551258171568
0	270846	30053.142658494024	0.706773751375
0	270855	30054.583611031548	0.383740236443
0	270864	30059.175862434319	0.383740236443
0	270873	30059.610754199836	0.383740236443
0	270882	30060.577909266675	0.166391133074
0	270891	30061.800231471161	0.383740236443
0	270900	30062.942679001939	0.383740236443
0	270909	30063.46256387058	0.383740236443
0	270925	30066.021388286916	0.166391133074
0	270927	30066.358566060325	0.383740236443
0	270943	30068.211598026284	0.383740236443
0	270945	30068.246036494652	0.166391133074
0	270960	30068.790594358423	0.383740236443
0	270963	30069.148678638553	0.601879310155
0	270985	30069.555163188691	0.166391133074
0	270987	30069.58314387204	0.383740236443
0	270996	30069.94122815217	0.467257073856
0	270999	30070.2993124323	0.638855333996
0	271008	30070.958721144999	0.383740236443
0	271017	30072.210630864828	0.383740236443
0	271026	30074.380149207911	0.166391133074
0	271035	30075.29167776129	0.383740236443
0	271044	30076.907838778559	0.383740236443
0	271053	30078.718580096733	0.383740236443
0	271062	30079.600242975286	0.383740236443
0	271077	30080.44314552411	0.383740236443
0	271086	30080.80122980424	0.531873954451
0	271089	30081.15931408437	0.692529423213
0	271098	30082.955006087388	0.383740236443
0	271107	30083.985545499899	0.383740236443
0	271119	30084.635111518612	0.383740236443
0	271125	30085.003124596839	0.383740236443
0	271140	30087.773270131472	0.383740236443
0	271149	30088.131354411602	0.722007037431
0	271152	30088.489438691732	0.561271070975
0	271161	30090.267185813041	0.166391133074
0	271170	30091.181090579411	0.383740236443
0	271179	30091.788810019528	0.383740236443
0	271188	30094.144159506841	0.166391133074
0	271197	30094.685552955024	0.383740236443
0	271206	30096.204179636469	0.383740236443
0	271222	30096.539882869099	0.189927983448
0	271224	30096.731576016155	0.383740236443
0	271239	30097.451491169035	0.383740236443
0	271242	30097.809575449165	0.65094449236
0	271251	30100.30806054619	0.383740236443
0	271272	30100.838955210155	0.383740236443
0	271275	30101.197039490285	0.716522375795
0	271284	30101.555123770415	0.806232496649
0	271287	30101.913208050545	0.522379374888
0	271296	30103.067364006029	0.166391133074
0	271318	30103.469110512134	0.166391133074
0	271321	30103.477062574695	0.383740236443
0	271323	30103.609845688895	0.199706209688
0	271332	30104.112994667246	0.383740236443
0	271347	30104.515934307385	0.383740236443
0	271350	30104.874018587515	0.467719702102
0	271359	30105.558603945506	0.383740236443
0	271368	30108.60218468083	0.383740236443
0	271383	30109.466566476195	0.383740236443
0	271386	30109.824650756325	0.482509474023
0	271395	30110.212111895743	0.383740236443
0	271410	30110.841872722126	0.383740236443
0	271413	30111.199957002256	0.702760703932
0	271422	30112.996221759511	0.383740236443
0	271431	30113.67485699862	0.383740236443
0	271440	30114.216295017872	0.383740236443
0	271455	30115.073365802202	0.383740236443
0	271458	30115.431450082332	0.732574857469
0	271467	30116.204358684629	0.383740236443
0	271476	30116.995103058888	0.166391133074
0	271485	30118.630347545745	0.383740236443
0	271494	30119.314844612163	0.383740236443
0	271503	30119.713262187128	0.383740236443
0	271512	30122.476593267067	0.383740236443
0	271521	30123.163160368379	0.383740236443
0	271530	30124.515387952683	0.383740236443
0	271539	30124.989804874864	0.166391133074
0	271548	30126.432502966693	0.383740236443
0	271557	30126.933546094781	0.383740236443
0	271566	30127.747815006884	0.383740236443
0	271575	30129.067264763566	0.383740236443
0	271584	30132.071936988413	0.383740236443
0	271593	30132.770156948009	0.383740236443
0	271602	30133.499549027681	0.383740236443
0	271611	30135.874332900745	0.383740236443
0	271620	30136.434821759286	0.383740236443
0	271629	30137.614997096251	0.383740236443
0	271638	30139.367781108104	0.383740236443
0	271653	30140.796311125598	0.383740236443
0	271656	30141.154395405728	0.740714395311
0	271665	30143.274564157792	0.166391133074
0	271680	30144.4454803563	0.383740236443
0	271683	30144.80356463643	0.59459483909
0	271698	30147.040008656021	0.383740236443
0	271708	30147.319784764556	0.166391133074
0	271710	30147.398092936151	0.545315935521
0	271719	30148.754472385335	0.383740236443
0	271728	30149.323495521124	0.383740236443
0	271737	30152.063383970435	0.383740236443
0	271746	30153.434686697483	0.383740236443
0	271755	30154.331113519129	0.383740236443
0	271764	30155.358140361791	0.166391133074
0	271773	30155.914918230838	0.383740236443
0	271782	30157.313728202027	0.383740236443
0	271797	30157.823971978483	0.383740236443
0	271800	30158.182056258613	0.412729872638
0	271809	30158.655813709958	0.166391133074
0	271825	30159.027962160433	0.166391133074
0	271827	30159.051388993802	0.383740236443
0	271836	30162.398173769213	0.383740236443
0	271845	30163.50567943344	0.166391133074
0	271854	30165.389389443575	0.383740236443
0	271863	30166.903066071357	0.383740236443
0	271872	30167.193033713795	0.166391133074
0	271881	30167.938541366164	0.383740236443
0	271890	30168.39832765834	0.383740236443
0	271899	30168.865564113574	0.166391133074
0	271908	30169.525735012581	0.383740236443
0	271917	30170.098919113922	0.383740236443
0	271932	30171.592228255681	0.383740236443
0	271938	30171.950312535811	0.709624979593
0	271944	30172.107472509568	0.166391133074
0	271959	30173.299759084434	0.383740236443
0	271962	30173.657843364564	0.485693174516
0	271971	30175.334946283025	0.383740236443
0	271980	30176.192709175243	0.383740236443
0	271996	30176.93933560719	0.166391133074
0	272005	30177.105566327467	0.383740236443
0	272007	30177.163682271436	0.166391133074
0	272022	30177.750716588314	0.166391133074
0	272025	30177.891451765075	0.186725917782
0	272034	30180.098091384367	0.383740236443
0	272043	30181.674716658908	0.383740236443
0	272059	30182.553291520615	0.166391133074
0	272061	30182.6016719768	0.383740236443
0	272070	30183.122738457422	0.383740236443
0	272079	30183.678087795623	0.383740236443
0	272088	30184.090330085814	0.383740236443
0	272097	30185.570405874936	0.383740236443
0	272112	30186.04003036014	0.383740236443
0	272115	30186.39811464027	0.435591485464
0	272124	30190.145553482382	0.383740236443
0	272139	30193.566294789798	0.383740236443
0	272142	30193.924379069928	0.735486198552
0	272151	30194.306806132104	0.166391133074
0	272160	30194.908011512419	0.383740236443
0	272169	30196.963149488003	0.383740236443
0	272184	30198.20462024904	0.383740236443
0	272193	30198.56270452917	0.403266042604
0	272196	30198.9207888093	0.500565760265
0	272205	30199.390472234338	0.383740236443
0	272214	30200.104132702921	0.166391133074
0	272223	30200.911189637515	0.166391133074
0	272232	30202.538806002463	0.383740236443
0	272241	30204.022199160973	0.383740236443
0	272250	30205.142035800468	0.383740236443
0	272266	30205.61726623483	0.166991658911
0	272268	30205.808959381886	0.383740236443
0	272277	30209.429425885838	0.383740236443
0	272286	30210.290099928355	0.383740236443
0	272301	30210.843860155805	0.383740236443
0	272304	30211.201944435935	0.56975413095
0	272313	30212.078159104434	0.383740236443
0	272322	30214.431835047977	0.383740236443
0	272331	30214.880991375823	0.383740236443
0	272340	30215.391605641039	0.383740236443
0	272356	30216.756096994729	0.166391133074
0	272358	30216.999102054411	0.387885848653
0	272373	30218.574707630282	0.383740236443
0	272376	30218.932791910412	0.593370460958
0	272385	30219.369588199344	0.383740236443
0	272394	30220.665490442053	0.383740236443
0	272403	30221.462578852723	0.383740236443
0	272419	30225.91314860189	0.166391133074
0	272421	30226.162899103535	0.383740236443
0	272430	30228.600055646539	0.383740236443
0	272445	30229.398231724391	0.383740236443
0	272448	30229.756316004521	0.712102245282
0	272457	30230.728879474808	0.383740236443
0	272466	30231.515293323733	0.166391133074
0	272475	30234.156132488046	0.383740236443
0	272484	30234.609348145411	0.166391133074
0	272493	30235.762318018111	0.383740236443
0	272502	30237.282722615304	0.383740236443
0	272511	30238.305255617356	0.383740236443
0	272520	30238.599428416287	0.166391133074
0	272529	30239.734293055669	0.383740236443
0	272544	30240.388547137177	0.383740236443
0	272547	30240.746631417307	0.630402486746
0	272556	30240.951238092166	0.166391133074
0	272565	30241.806254292683	0.383740236443
0	272574	30243.099081441667	0.166391133074
0	272583	30243.613502591066	0.166391133074
0	272592	30245.872975131561	0.383740236443
0	272607	30246.784112298494	0.383740236443
0	272610	30247.142196578624	0.703559684877
0	272619	30248.026866697327	0.383740236443
0	272628	30249.365302328708	0.383740236443
0	272637	30250.732458937828	0.383740236443
0	272646	30251.593719680873	0.383740236443
0	272655	30254.305269327408	0.383740236443
0	272664	30255.716809497266	0.383740236443
0	272673	30256.314922356053	0.383740236443
0	272688	30256.895371503853	0.383740236443
0	272691	30257.253455783983	0.488728639708
0	272700	30258.690917195773	0.383740236443
0	272709	30258.881840053425	0.166391133074
0	272718	30259.758059712806	0.383740236443
0	272727	30260.274163122302	0.166391133074
0	272736	30260.738120012578	0.383740236443
0	272758	30262.87228361519	0.166391133074
0	272760	30262.930622909726	0.383740236443
0	272763	30263.288707189856	0.50854177956
0	272772	30263.829197121147	0.166391133074
0	272781	30265.369322472447	0.383740236443
0	272793	30266.422121581645	0.383740236443
0	272806	30266.781367825705	0.166391133074
0	272808	30266.785209550225	0.383740236443
0	272836	30268.830770875696	0.383740236443
0	272839	30268.843659372354	0.166391133074
0	272841	30269.188855155826	0.659446740796
0	272844	30269.546939435956	0.745605274427
0	272853	30270.200765404779	0.383740236443
0	272875	30271.050748525939	0.166391133074
0	272877	30271.130509763172	0.383740236443
0	272886	30271.488594043302	0.631586383974
0	272889	30271.846678323432	0.509247223544
0	272904	30273.969736869182	0.383740236443
0	272907	30274.327821149312	0.533728627042
0	272916	30280.329110463158	0.383740236443
0	272925	30283.051893736487	0.166391133074
0	272934	30283.337005672546	0.166391133074
0	272943	30285.692072332518	0.383740236443
0	272955	30288.526780580547	0.383740236443
0	272961	30288.886957218939	0.383740236443
0	272970	30290.406991845978	0.383740236443
0	272979	30290.923049478223	0.383740236443
0	272988	30292.694092940576	0.383740236443
0	273003	30293.385280220375	0.383740236443
0	273006	30293.743364500505	0.647296446787
0	273015	30294.208720939215	0.383740236443
0	273024	30294.620822491438	0.383740236443
0	273033	30296.315804032784	0.383740236443
0	273042	30297.204157544893	0.383740236443
0	273057	30298.453297008635	0.383740236443
0	273060	30298.811381288765	0.572360294386
0	273075	30299.533817341363	0.383740236443
0	273084	30299.891901621493	0.700946632367
0	273087	30300.249985901623	0.425484361365
0	273102	30301.32898064316	0.383740236443
0	273112	30301.68706492329	0.636006860392
0	273114	30301.691430301108	0.166391133074
0	273123	30302.257271865465	0.166391133074
0	273132	30302.587040368764	0.166391133074
0	273141	30303.10646411715	0.383740236443
0	273150	30303.863401096316	0.383740236443
0	273165	30306.377508875885	0.383740236443
0	273168	30306.735593156015	0.543567689303
0	273177	30307.37347752446	0.383740236443
0	273186	30308.328557900711	0.383740236443
0	273195	30309.723896893972	0.383740236443
0	273211	30315.48531197431	0.166391133074
0	273213	30315.728317033992	0.40420795518
0	273222	30316.246317441616	0.383740236443
0	273237	30316.845665712228	0.383740236443
0	273240	30317.203749992358	0.702300369486
0	273249	30318.583989191246	0.383740236443
0	273258	30319.205540116825	0.383740236443
0	273273	30319.561163295267	0.166391133074
0	273283	30319.701898472028	0.258798290808
0	273291	30319.957554814186	0.383740236443
0	273294	30320.315639094316	0.40859994706
0	273303	30321.139403742748	0.383740236443
0	273318	30321.628566536044	0.383740236443
0	273327	30321.986650816174	0.538074247715
0	273330	30322.344735096304	0.568936437937
0	273339	30326.592634984944	0.166391133074
0	273348	30327.591273928229	0.383740236443
0	273357	30329.612145768258	0.383740236443
0	273366	30330.539016382617	0.383740236443
0	273382	30332.332171810054	0.383740236443
0	273391	30332.443315047185	0.166391133074
0	273393	30332.757158573115	0.383740236443
0	273402	30333.409334754919	0.383740236443
0	273411	30333.944681252843	0.383740236443
0	273427	30335.334075666604	0.383740236443
0	273429	30335.470437284251	0.166391133074
0	273438	30338.074788603865	0.383740236443
0	273447	30339.380772228222	0.383740236443
0	273456	30339.851795822517	0.383740236443
0	273471	30341.21121848839	0.383740236443
0	273474	30341.56930276852	0.722346877675
0	273483	30342.432408755106	0.166391133074
0	273499	30342.625106032601	0.166391133074
0	273507	30342.959829805809	0.383740236443
0	273510	30343.317914085939	0.563154335591
0	273519	30344.76266000363	0.166391133074
0	273528	30345.518111954783	0.383740236443
0	273537	30349.120881406013	0.166391133074
0	273546	30350.197790247193	0.166391133074
0	273555	30351.464445895171	0.383740236443
0	273571	30351.95579544335	0.166391133074
0	273579	30352.306432055437	0.383740236443
0	273582	30352.664516335567	0.634824298361
0	273598	30353.719061181175	0.166391133074
0	273600	30353.826305915858	0.383740236443
0	273615	30354.848893019062	0.383740236443
0	273618	30355.206977299192	0.601176975198
0	273627	30356.252509567828	0.383740236443
0	273636	30358.674009311306	0.383740236443
0	273645	30360.08599308067	0.383740236443
0	273661	30362.212852811438	0.166391133074
0	273663	30362.342087403594	0.383740236443
0	273679	30363.589009400858	0.166391133074
0	273687	30363.859473601628	0.383740236443
0	273690	30364.217557881758	0.597089891164
0	273705	30366.892131400954	0.383740236443
0	273715	30367.19026546322	0.166391133074
0	273717	30367.250215681084	0.736881501291
0	273726	30367.983990909785	0.383740236443
0	273741	30369.987905322443	0.383740236443
0	273750	30370.345989602573	0.560264361785
0	273753	30370.704073882703	0.522361767728
0	273762	30371.469047016012	0.383740236443
0	273778	30371.649979454359	0.166391133074
0	273783	30371.946625998429	0.383740236443
0	273789	30372.105833580394	0.166391133074
0	273798	30372.877714454046	0.383740236443
0	273807	30373.421821881861	0.166391133074
0	273822	30376.940032956519	0.383740236443
0	273825	30377.298117236649	0.729723793908
0	273834	30377.988849175683	0.383740236443
0	273850	30378.922247559353	0.383740236443
0	273852	30378.931652711912	0.166391133074
0	273861	30379.427235201032	0.383740236443
0	273873	30379.833770327378	0.166391133074
0	273879	30380.214421599819	0.383740236443
0	273894	30381.54511415858	0.383740236443
0	273904	30381.90319843871	0.494713134448
0	273906	30381.938081297857	0.166391133074
0	273915	30382.340943561304	0.383740236443
0	273931	30384.390118986958	0.383740236443
0	273933	30384.51522741549	0.166391133074
0	273942	30384.856582947004	0.166391133074
0	273951	30389.542439266432	0.383740236443
0	273960	30389.982908852745	0.383740236443
0	273969	30391.098117225614	0.383740236443
0	273978	30392.049244309857	0.166391133074
0	273987	30393.247838884535	0.383740236443
0	273996	30393.942721966878	0.383740236443
0	274017	30394.700147337455	0.383740236443
0	274027	30395.058231617585	0.570893575817
0	274030	30395.195209580347	0.166391133074
0	274032	30395.416315897715	0.797054014833
0	274041	30397.082314056747	0.166391133074
0	274050	30397.526905069077	0.383740236443
0	274059	30398.506303962969	0.383740236443
0	274068	30399.162109182502	0.383740236443
0	274077	30399.895958133044	0.383740236443
0	274086	30402.395728252023	0.383740236443
0	274101	30403.087836906152	0.383740236443
0	274104	30403.445921186282	0.630630179136
0	274119	30404.495681786236	0.383740236443
0	274128	30404.853766066366	0.471675288947
0	274131	30405.211850346496	0.607699322964
0	274140	30405.630899573647	0.383740236443
0	274161	30406.889241174383	0.383740236443
0	274164	30407.247325454513	0.612455941251
0	274167	30407.605409734643	0.791367314567
0	274176	30409.807808220054	0.383740236443
0	274185	30410.429012799496	0.383740236443
0	274194	30411.350496053324	0.383740236443
0	274203	30411.974106578721	0.166391133074
0	274212	30412.395098019503	0.166391133074
0	274221	30415.047280357639	0.383740236443
0	274230	30417.290182129266	0.383740236443
0	274239	30419.062366692236	0.383740236443
0	274248	30419.72181046291	0.383740236443
0	274257	30420.116299571035	0.383740236443
0	274266	30420.766550110327	0.383740236443
0	274275	30423.044276376731	0.383740236443
0	274284	30424.57467160446	0.383740236443
0	274293	30425.164981475119	0.383740236443
0	274302	30425.921364914608	0.383740236443
0	274311	30426.182746191323	0.166391133074
0	274320	30427.369592502921	0.383740236443
0	274329	30428.412612621834	0.383740236443
0	274344	30429.672896531885	0.383740236443
0	274352	30430.030980812015	0.491479535806
0	274362	30430.398450642871	0.383740236443
0	274365	30430.756534923001	0.739310499914
0	274374	30431.171605770843	0.383740236443
0	274383	30432.151120506959	0.166391133074
0	274405	30433.340322462637	0.166391133074
0	274407	30433.479981752748	0.383740236443
0	274410	30433.838066032878	0.691706849558
0	274431	30434.350950273527	0.383740236443
0	274434	30434.709034553657	0.614186293799
0	274437	30435.067118833787	0.762344815003
0	274458	30437.583216461751	0.383740236443
0	274461	30437.941300741881	0.621363264465
0	274464	30438.299385022011	0.851437830002
0	274473	30439.107691552915	0.383740236443
0	274488	30443.888339201096	0.383740236443
0	274497	30444.246423481226	0.387821906321
0	274500	30444.604507761356	0.621804899911
0	274509	30445.284151185206	0.166391133074
0	274524	30447.247607046096	0.166391133074
0	274527	30447.388342222857	0.182109881581
0	274542	30448.192658043459	0.383740236443
0	274545	30448.550742323589	0.548379571143
0	274561	30453.539998298703	0.383740236443
0	274563	30453.677673174036	0.166391133074
0	274572	30454.345703772491	0.383740236443
0	274581	30456.165912050178	0.383740236443
0	274590	30456.580002155826	0.166391133074
0	274605	30457.730402842524	0.383740236443
0	274608	30458.088487122654	0.703252890327
0	274623	30458.670788670984	0.383740236443
0	274626	30459.028872951114	0.666344161939
0	274635	30459.981757784306	0.383740236443
0	274644	30461.092332178506	0.383740236443
0	274656	30463.906559873692	0.383740236443
0	274668	30464.275688483504	0.383740236443
0	274683	30464.633772763634	0.605257870309
0	274686	30464.991857043764	0.505269540838
0	274689	30465.349941323894	0.843926548065
0	274701	30465.760513209111	0.166391133074
0	274713	30466.130059200427	0.383740236443
0	274716	30466.488143480557	0.628369010208
0	274725	30467.04265868847	0.383740236443
0	274734	30474.896477238724	0.383740236443
0	274743	30478.126922243108	0.383740236443
0	274752	30479.718159919685	0.383740236443
0	274767	30480.272467031276	0.383740236443
0	274770	30480.630551311406	0.483948140794
0	274779	30481.299800031197	0.383740236443
0	274788	30482.438749509516	0.383740236443
0	274807	30484.379043947635	0.166391133074
0	274812	30484.623879990234	0.383740236443
0	274815	30484.981964270364	0.615563141921
0	274824	30485.151496203505	0.166391133074
0	274833	30485.924290557171	0.383740236443
0	274842	30486.489798013601	0.383740236443
0	274851	30487.027285766466	0.166391133074
0	274860	30489.222987747816	0.166391133074
0	274869	30489.796846610836	0.383740236443
0	274885	30490.048135920338	0.166391133074
0	274887	30490.221903719954	0.383740236443
0	274896	30491.514159770398	0.383740236443
0	274905	30492.700573210519	0.383740236443
0	274920	30493.325988458629	0.383740236443
0	274923	30493.684072738759	0.532556484176
0	274938	30497.047023289917	0.383740236443
0	274953	30497.405107570047	0.524987736149
0	274956	30497.763191850177	0.542902638048
0	274959	30498.121276130307	0.810768532797
0	274968	30501.69903679112	0.383740236443
0	274983	30502.925010323084	0.383740236443
0	274986	30503.283094603214	0.525750202341
0	274995	30505.010119435042	0.383740236443
0	275010	30505.894354889937	0.383740236443
0	275019	30506.252439170067	0.510859701299
0	275022	30506.610523450197	0.422648496338
0	275031	30507.294346895851	0.383740236443
0	275046	30507.98765898486	0.383740236443
0	275055	30508.34574326499	0.741492502008
0	275058	30508.70382754512	0.414369765474
0	275073	30509.639662127783	0.383740236443
0	275076	30509.997746407913	0.66221432018
0	275094	30512.019138143812	0.383740236443
0	275101	30512.166658199241	0.166391133074
0	275103	30512.377222423942	0.502779026254
0	275115	30512.869709385256	0.166391133074
0	275121	30513.228639176051	0.383740236443
0	275130	30513.747884202757	0.383740236443
0	275139	30517.023584226228	0.383740236443
0	275148	30517.659234278498	0.383740236443
0	275157	30518.887079699961	0.383740236443
0	275172	30519.850405974366	0.383740236443
0	275181	30520.208490254496	0.622033470496
0	275190	30520.566574534626	0.536642033401
0	275193	30520.924658814756	0.702790437873
0	275202	30521.194241559817	0.166391133074
0	275211	30521.61988084503	0.383740236443
0	275232	30524.47914257853	0.383740236443
0	275235	30524.83722685866	0.496078391444
0	275244	30525.19531113879	0.840819331039
0	275247	30525.55339541892	0.413232405692
0	275262	30526.802039271965	0.383740236443
0	275265	30527.160123552095	0.631325769038
0	275274	30527.859348654426	0.166391133074
0	275283	30528.830606872831	0.166391133074
0	275292	30530.131910070332	0.383740236443
0	275301	30533.769706471686	0.383740236443
0	275310	30534.432770614601	0.383740236443
0	275326	30534.640327063023	0.172571465624
0	275328	30534.832020210079	0.383740236443
0	275337	30535.309771325461	0.383740236443
0	275346	30535.971248460845	0.383740236443
0	275355	30541.51684250935	0.383740236443
0	275364	30542.760338703915	0.383740236443
0	275373	30543.290541767685	0.383740236443
0	275382	30545.205989322949	0.383740236443
0	275391	30546.680718642009	0.383740236443
0	275407	30547.15421890193	0.166868402816
0	275409	30547.345912048986	0.383740236443
0	275418	30550.575539598612	0.166391133074
0	275446	30554.208068632835	0.166391133074
0	275448	30554.237695321732	0.383740236443
0	275451	30554.595779601862	0.698407960379
0	275454	30554.953863881992	0.976679954529
0	275463	30555.449432121925	0.383740236443
0	275472	30558.462389097349	0.383740236443
0	275481	30560.106333621494	0.383740236443
0	275490	30560.525247256239	0.166391133074
0	275499	30563.834192377587	0.383740236443
0	275508	30565.604785620382	0.166391133074
0	275517	30566.37553141897	0.383740236443
0	275526	30567.053209223171	0.383740236443
0	275541	30567.904123030694	0.383740236443
0	275544	30568.262207310824	0.710228307278
0	275553	30569.319204160828	0.383740236443
0	275562	30569.933118374202	0.383740236443
0	275571	30570.972660539348	0.383740236443
0	275580	30571.671598184944	0.166391133074
0	275595	30572.343595555638	0.383740236443
0	275598	30572.701679835768	0.559315629515
0	275607	30574.422254226494	0.383740236443
0	275616	30575.086582970322	0.383740236443
0	275625	30575.560719835871	0.383740236443
0	275634	30576.002958368085	0.383740236443
0	275650	30577.15019658624	0.166391133074
0	275652	30577.155267010374	0.383740236443
0	275661	30581.411949920288	0.166391133074
0	275676	30582.770597260047	0.383740236443
0	275686	30583.080946071454	0.166391133074
0	275688	30583.128681540177	0.693565068746
0	275697	30584.642261463013	0.383740236443
0	275706	30585.446787590459	0.383740236443
0	275722	30586.102197145416	0.166391133074
0	275724	30586.238317377357	0.383740236443
0	275739	30588.839423889767	0.383740236443
0	275742	30589.197508169897	0.584364247102
0	275757	30589.624445530496	0.383740236443
0	275760	30589.982529810626	0.665053821312
0	275769	30591.564347766254	0.166391133074
0	275778	30593.903871532401	0.383740236443
0	275787	30594.436135859327	0.383740236443
0	275808	30595.433605229355	0.383740236443
0	275817	30595.791689509485	0.599879509106
0	275820	30596.149773789615	0.927260666919
0	275823	30596.507858069745	0.926802939794
0	275838	30597.127959384676	0.383740236443
0	275841	30597.486043664806	0.545635593787
0	275850	30597.890557965606	0.383740236443
0	275866	30598.91762729106	0.166391133074
0	275868	30598.940138726145	0.383740236443
0	275877	30600.555002289345	0.383740236443
0	275892	30606.82639242682	0.383740236443
0	275895	30607.18447670695	0.525851824481
0	275904	30608.68238385634	0.383740236443
0	275913	30612.929834340919	0.383740236443
0	275922	30616.669722402873	0.383740236443
0	275931	30617.210054489184	0.383740236443
0	275940	30617.919260436269	0.383740236443
0	275955	30618.308252572295	0.383740236443
0	275958	30618.666336852425	0.642494397336
0	275967	30621.239669129022	0.383740236443
0	275976	30624.525401574193	0.383740236443
0	275985	30624.96182499526	0.383740236443
0	275994	30625.756836608718	0.383740236443
0	276003	30627.423402652566	0.383740236443
0	276012	30628.039024762267	0.383740236443
0	276021	30629.274923545632	0.166391133074
0	276030	30629.91606617391	0.383740236443
0	276039	30630.307706186675	0.383740236443
0	276048	30631.285794805855	0.383740236443
0	276057	30633.684671102207	0.383740236443
0	276066	30635.131310362103	0.166391133074
0	276075	30637.02385347502	0.383740236443
0	276084	30637.709858151455	0.166391133074
0	276093	30640.009820960002	0.383740236443
0	276117	30640.624441483565	0.383740236443
0	276124	30640.79023185774	0.166391133074
0	276126	30640.982525763695	0.71379865137
0	276129	30641.340610043825	0.999822460413
0	276144	30641.997829161893	0.383740236443
0	276153	30642.355913442023	0.534796989948
0	276156	30642.713997722153	0.50556088584
0	276165	30643.944083403344	0.166391133074
0	276174	30644.540355240932	0.383740236443
0	276183	30644.86465050646	0.166391133074
0	276199	30645.074021605464	0.186788769996
0	276201	30645.26571475252	0.383740236443
0	276216	30646.234568177555	0.383740236443
0	276219	30646.592652457685	0.73644340109
0	276228	30648.428822645355	0.383740236443
0	276237	30648.996747487138	0.383740236443
0	276246	30649.483404994294	0.166391133074
0	276255	30650.943125801719	0.383740236443
0	276270	30651.87618129347	0.383740236443
0	276279	30652.2342655736	0.432284230752
0	276288	30652.59234985373	0.694225912091
0	276291	30652.95043413386	0.577617430677
0	276300	30653.697647760227	0.383740236443